+ 0.5 0 1 cbr 512 ------- 2 0.0 2.0 0 0
- 0.5 0 1 cbr 512 ------- 2 0.0 2.0 0 0
+ 0.509143 0 1 cbr 512 ------- 2 0.0 2.0 1 1
- 0.509143 0 1 cbr 512 ------- 2 0.0 2.0 1 1
+ 0.518286 0 1 cbr 512 ------- 2 0.0 2.0 2 2
- 0.518286 0 1 cbr 512 ------- 2 0.0 2.0 2 2
+ 0.527429 0 1 cbr 512 ------- 2 0.0 2.0 3 3
- 0.527429 0 1 cbr 512 ------- 2 0.0 2.0 3 3
r 0.528192 0 1 cbr 512 ------- 2 0.0 2.0 0 0
+ 0.528192 1 2 cbr 512 ------- 2 0.0 2.0 0 0
- 0.528192 1 2 cbr 512 ------- 2 0.0 2.0 0 0
+ 0.536571 0 1 cbr 512 ------- 2 0.0 2.0 4 4
- 0.536571 0 1 cbr 512 ------- 2 0.0 2.0 4 4
r 0.537335 0 1 cbr 512 ------- 2 0.0 2.0 1 1
+ 0.537335 1 2 cbr 512 ------- 2 0.0 2.0 1 1
- 0.537335 1 2 cbr 512 ------- 2 0.0 2.0 1 1
+ 0.545714 0 1 cbr 512 ------- 2 0.0 2.0 5 5
- 0.545714 0 1 cbr 512 ------- 2 0.0 2.0 5 5
r 0.546478 0 1 cbr 512 ------- 2 0.0 2.0 2 2
+ 0.546478 1 2 cbr 512 ------- 2 0.0 2.0 2 2
- 0.546478 1 2 cbr 512 ------- 2 0.0 2.0 2 2
+ 0.554857 0 1 cbr 512 ------- 2 0.0 2.0 6 6
- 0.554857 0 1 cbr 512 ------- 2 0.0 2.0 6 6
r 0.555621 0 1 cbr 512 ------- 2 0.0 2.0 3 3
+ 0.555621 1 2 cbr 512 ------- 2 0.0 2.0 3 3
- 0.555621 1 2 cbr 512 ------- 2 0.0 2.0 3 3
r 0.556384 1 2 cbr 512 ------- 2 0.0 2.0 0 0
+ 0.564 0 1 cbr 512 ------- 2 0.0 2.0 7 7
- 0.564 0 1 cbr 512 ------- 2 0.0 2.0 7 7
r 0.564763 0 1 cbr 512 ------- 2 0.0 2.0 4 4
+ 0.564763 1 2 cbr 512 ------- 2 0.0 2.0 4 4
- 0.564763 1 2 cbr 512 ------- 2 0.0 2.0 4 4
r 0.565527 1 2 cbr 512 ------- 2 0.0 2.0 1 1
+ 0.573143 0 1 cbr 512 ------- 2 0.0 2.0 8 8
- 0.573143 0 1 cbr 512 ------- 2 0.0 2.0 8 8
r 0.573906 0 1 cbr 512 ------- 2 0.0 2.0 5 5
+ 0.573906 1 2 cbr 512 ------- 2 0.0 2.0 5 5
- 0.573906 1 2 cbr 512 ------- 2 0.0 2.0 5 5
r 0.57467 1 2 cbr 512 ------- 2 0.0 2.0 2 2
+ 0.582286 0 1 cbr 512 ------- 2 0.0 2.0 9 9
- 0.582286 0 1 cbr 512 ------- 2 0.0 2.0 9 9
r 0.583049 0 1 cbr 512 ------- 2 0.0 2.0 6 6
+ 0.583049 1 2 cbr 512 ------- 2 0.0 2.0 6 6
- 0.583049 1 2 cbr 512 ------- 2 0.0 2.0 6 6
r 0.583813 1 2 cbr 512 ------- 2 0.0 2.0 3 3
+ 0.591429 0 1 cbr 512 ------- 2 0.0 2.0 10 10
- 0.591429 0 1 cbr 512 ------- 2 0.0 2.0 10 10
r 0.592192 0 1 cbr 512 ------- 2 0.0 2.0 7 7
+ 0.592192 1 2 cbr 512 ------- 2 0.0 2.0 7 7
- 0.592192 1 2 cbr 512 ------- 2 0.0 2.0 7 7
r 0.592955 1 2 cbr 512 ------- 2 0.0 2.0 4 4
+ 0.600571 0 1 cbr 512 ------- 2 0.0 2.0 11 11
- 0.600571 0 1 cbr 512 ------- 2 0.0 2.0 11 11
r 0.601335 0 1 cbr 512 ------- 2 0.0 2.0 8 8
+ 0.601335 1 2 cbr 512 ------- 2 0.0 2.0 8 8
- 0.601335 1 2 cbr 512 ------- 2 0.0 2.0 8 8
r 0.602098 1 2 cbr 512 ------- 2 0.0 2.0 5 5
+ 0.609714 0 1 cbr 512 ------- 2 0.0 2.0 12 12
- 0.609714 0 1 cbr 512 ------- 2 0.0 2.0 12 12
r 0.610478 0 1 cbr 512 ------- 2 0.0 2.0 9 9
+ 0.610478 1 2 cbr 512 ------- 2 0.0 2.0 9 9
- 0.610478 1 2 cbr 512 ------- 2 0.0 2.0 9 9
r 0.611241 1 2 cbr 512 ------- 2 0.0 2.0 6 6
+ 0.618857 0 1 cbr 512 ------- 2 0.0 2.0 13 13
- 0.618857 0 1 cbr 512 ------- 2 0.0 2.0 13 13
r 0.619621 0 1 cbr 512 ------- 2 0.0 2.0 10 10
+ 0.619621 1 2 cbr 512 ------- 2 0.0 2.0 10 10
- 0.619621 1 2 cbr 512 ------- 2 0.0 2.0 10 10
r 0.620384 1 2 cbr 512 ------- 2 0.0 2.0 7 7
+ 0.628 0 1 cbr 512 ------- 2 0.0 2.0 14 14
- 0.628 0 1 cbr 512 ------- 2 0.0 2.0 14 14
r 0.628763 0 1 cbr 512 ------- 2 0.0 2.0 11 11
+ 0.628763 1 2 cbr 512 ------- 2 0.0 2.0 11 11
- 0.628763 1 2 cbr 512 ------- 2 0.0 2.0 11 11
r 0.629527 1 2 cbr 512 ------- 2 0.0 2.0 8 8
+ 0.637143 0 1 cbr 512 ------- 2 0.0 2.0 15 15
- 0.637143 0 1 cbr 512 ------- 2 0.0 2.0 15 15
r 0.637906 0 1 cbr 512 ------- 2 0.0 2.0 12 12
+ 0.637906 1 2 cbr 512 ------- 2 0.0 2.0 12 12
- 0.637906 1 2 cbr 512 ------- 2 0.0 2.0 12 12
r 0.63867 1 2 cbr 512 ------- 2 0.0 2.0 9 9
+ 0.646286 0 1 cbr 512 ------- 2 0.0 2.0 16 16
- 0.646286 0 1 cbr 512 ------- 2 0.0 2.0 16 16
r 0.647049 0 1 cbr 512 ------- 2 0.0 2.0 13 13
+ 0.647049 1 2 cbr 512 ------- 2 0.0 2.0 13 13
- 0.647049 1 2 cbr 512 ------- 2 0.0 2.0 13 13
r 0.647813 1 2 cbr 512 ------- 2 0.0 2.0 10 10
+ 0.655429 0 1 cbr 512 ------- 2 0.0 2.0 17 17
- 0.655429 0 1 cbr 512 ------- 2 0.0 2.0 17 17
r 0.656192 0 1 cbr 512 ------- 2 0.0 2.0 14 14
+ 0.656192 1 2 cbr 512 ------- 2 0.0 2.0 14 14
- 0.656192 1 2 cbr 512 ------- 2 0.0 2.0 14 14
r 0.656955 1 2 cbr 512 ------- 2 0.0 2.0 11 11
+ 0.664571 0 1 cbr 512 ------- 2 0.0 2.0 18 18
- 0.664571 0 1 cbr 512 ------- 2 0.0 2.0 18 18
r 0.665335 0 1 cbr 512 ------- 2 0.0 2.0 15 15
+ 0.665335 1 2 cbr 512 ------- 2 0.0 2.0 15 15
- 0.665335 1 2 cbr 512 ------- 2 0.0 2.0 15 15
r 0.666098 1 2 cbr 512 ------- 2 0.0 2.0 12 12
+ 0.673714 0 1 cbr 512 ------- 2 0.0 2.0 19 19
- 0.673714 0 1 cbr 512 ------- 2 0.0 2.0 19 19
r 0.674478 0 1 cbr 512 ------- 2 0.0 2.0 16 16
+ 0.674478 1 2 cbr 512 ------- 2 0.0 2.0 16 16
- 0.674478 1 2 cbr 512 ------- 2 0.0 2.0 16 16
r 0.675241 1 2 cbr 512 ------- 2 0.0 2.0 13 13
+ 0.682857 0 1 cbr 512 ------- 2 0.0 2.0 20 20
- 0.682857 0 1 cbr 512 ------- 2 0.0 2.0 20 20
r 0.683621 0 1 cbr 512 ------- 2 0.0 2.0 17 17
+ 0.683621 1 2 cbr 512 ------- 2 0.0 2.0 17 17
- 0.683621 1 2 cbr 512 ------- 2 0.0 2.0 17 17
r 0.684384 1 2 cbr 512 ------- 2 0.0 2.0 14 14
+ 0.692 0 1 cbr 512 ------- 2 0.0 2.0 21 21
- 0.692 0 1 cbr 512 ------- 2 0.0 2.0 21 21
r 0.692763 0 1 cbr 512 ------- 2 0.0 2.0 18 18
+ 0.692763 1 2 cbr 512 ------- 2 0.0 2.0 18 18
- 0.692763 1 2 cbr 512 ------- 2 0.0 2.0 18 18
r 0.693527 1 2 cbr 512 ------- 2 0.0 2.0 15 15
+ 0.701143 0 1 cbr 512 ------- 2 0.0 2.0 22 22
- 0.701143 0 1 cbr 512 ------- 2 0.0 2.0 22 22
r 0.701906 0 1 cbr 512 ------- 2 0.0 2.0 19 19
+ 0.701906 1 2 cbr 512 ------- 2 0.0 2.0 19 19
- 0.701906 1 2 cbr 512 ------- 2 0.0 2.0 19 19
r 0.70267 1 2 cbr 512 ------- 2 0.0 2.0 16 16
+ 0.710286 0 1 cbr 512 ------- 2 0.0 2.0 23 23
- 0.710286 0 1 cbr 512 ------- 2 0.0 2.0 23 23
r 0.711049 0 1 cbr 512 ------- 2 0.0 2.0 20 20
+ 0.711049 1 2 cbr 512 ------- 2 0.0 2.0 20 20
- 0.711049 1 2 cbr 512 ------- 2 0.0 2.0 20 20
r 0.711813 1 2 cbr 512 ------- 2 0.0 2.0 17 17
+ 0.719429 0 1 cbr 512 ------- 2 0.0 2.0 24 24
- 0.719429 0 1 cbr 512 ------- 2 0.0 2.0 24 24
r 0.720192 0 1 cbr 512 ------- 2 0.0 2.0 21 21
+ 0.720192 1 2 cbr 512 ------- 2 0.0 2.0 21 21
- 0.720192 1 2 cbr 512 ------- 2 0.0 2.0 21 21
r 0.720955 1 2 cbr 512 ------- 2 0.0 2.0 18 18
+ 0.728571 0 1 cbr 512 ------- 2 0.0 2.0 25 25
- 0.728571 0 1 cbr 512 ------- 2 0.0 2.0 25 25
r 0.729335 0 1 cbr 512 ------- 2 0.0 2.0 22 22
+ 0.729335 1 2 cbr 512 ------- 2 0.0 2.0 22 22
- 0.729335 1 2 cbr 512 ------- 2 0.0 2.0 22 22
r 0.730098 1 2 cbr 512 ------- 2 0.0 2.0 19 19
+ 0.737714 0 1 cbr 512 ------- 2 0.0 2.0 26 26
- 0.737714 0 1 cbr 512 ------- 2 0.0 2.0 26 26
r 0.738478 0 1 cbr 512 ------- 2 0.0 2.0 23 23
+ 0.738478 1 2 cbr 512 ------- 2 0.0 2.0 23 23
- 0.738478 1 2 cbr 512 ------- 2 0.0 2.0 23 23
r 0.739241 1 2 cbr 512 ------- 2 0.0 2.0 20 20
+ 0.746857 0 1 cbr 512 ------- 2 0.0 2.0 27 27
- 0.746857 0 1 cbr 512 ------- 2 0.0 2.0 27 27
r 0.747621 0 1 cbr 512 ------- 2 0.0 2.0 24 24
+ 0.747621 1 2 cbr 512 ------- 2 0.0 2.0 24 24
- 0.747621 1 2 cbr 512 ------- 2 0.0 2.0 24 24
r 0.748384 1 2 cbr 512 ------- 2 0.0 2.0 21 21
+ 0.756 0 1 cbr 512 ------- 2 0.0 2.0 28 28
- 0.756 0 1 cbr 512 ------- 2 0.0 2.0 28 28
r 0.756763 0 1 cbr 512 ------- 2 0.0 2.0 25 25
+ 0.756763 1 2 cbr 512 ------- 2 0.0 2.0 25 25
- 0.756763 1 2 cbr 512 ------- 2 0.0 2.0 25 25
r 0.757527 1 2 cbr 512 ------- 2 0.0 2.0 22 22
+ 0.765143 0 1 cbr 512 ------- 2 0.0 2.0 29 29
- 0.765143 0 1 cbr 512 ------- 2 0.0 2.0 29 29
r 0.765906 0 1 cbr 512 ------- 2 0.0 2.0 26 26
+ 0.765906 1 2 cbr 512 ------- 2 0.0 2.0 26 26
- 0.765906 1 2 cbr 512 ------- 2 0.0 2.0 26 26
r 0.76667 1 2 cbr 512 ------- 2 0.0 2.0 23 23
+ 0.774286 0 1 cbr 512 ------- 2 0.0 2.0 30 30
- 0.774286 0 1 cbr 512 ------- 2 0.0 2.0 30 30
r 0.775049 0 1 cbr 512 ------- 2 0.0 2.0 27 27
+ 0.775049 1 2 cbr 512 ------- 2 0.0 2.0 27 27
- 0.775049 1 2 cbr 512 ------- 2 0.0 2.0 27 27
r 0.775813 1 2 cbr 512 ------- 2 0.0 2.0 24 24
+ 0.783429 0 1 cbr 512 ------- 2 0.0 2.0 31 31
- 0.783429 0 1 cbr 512 ------- 2 0.0 2.0 31 31
r 0.784192 0 1 cbr 512 ------- 2 0.0 2.0 28 28
+ 0.784192 1 2 cbr 512 ------- 2 0.0 2.0 28 28
- 0.784192 1 2 cbr 512 ------- 2 0.0 2.0 28 28
r 0.784955 1 2 cbr 512 ------- 2 0.0 2.0 25 25
+ 0.792571 0 1 cbr 512 ------- 2 0.0 2.0 32 32
- 0.792571 0 1 cbr 512 ------- 2 0.0 2.0 32 32
r 0.793335 0 1 cbr 512 ------- 2 0.0 2.0 29 29
+ 0.793335 1 2 cbr 512 ------- 2 0.0 2.0 29 29
- 0.793335 1 2 cbr 512 ------- 2 0.0 2.0 29 29
r 0.794098 1 2 cbr 512 ------- 2 0.0 2.0 26 26
+ 0.801714 0 1 cbr 512 ------- 2 0.0 2.0 33 33
- 0.801714 0 1 cbr 512 ------- 2 0.0 2.0 33 33
r 0.802478 0 1 cbr 512 ------- 2 0.0 2.0 30 30
+ 0.802478 1 2 cbr 512 ------- 2 0.0 2.0 30 30
- 0.802478 1 2 cbr 512 ------- 2 0.0 2.0 30 30
r 0.803241 1 2 cbr 512 ------- 2 0.0 2.0 27 27
+ 0.810857 0 1 cbr 512 ------- 2 0.0 2.0 34 34
- 0.810857 0 1 cbr 512 ------- 2 0.0 2.0 34 34
r 0.811621 0 1 cbr 512 ------- 2 0.0 2.0 31 31
+ 0.811621 1 2 cbr 512 ------- 2 0.0 2.0 31 31
- 0.811621 1 2 cbr 512 ------- 2 0.0 2.0 31 31
r 0.812384 1 2 cbr 512 ------- 2 0.0 2.0 28 28
+ 0.82 0 1 cbr 512 ------- 2 0.0 2.0 35 35
- 0.82 0 1 cbr 512 ------- 2 0.0 2.0 35 35
r 0.820763 0 1 cbr 512 ------- 2 0.0 2.0 32 32
+ 0.820763 1 2 cbr 512 ------- 2 0.0 2.0 32 32
- 0.820763 1 2 cbr 512 ------- 2 0.0 2.0 32 32
r 0.821527 1 2 cbr 512 ------- 2 0.0 2.0 29 29
+ 0.829143 0 1 cbr 512 ------- 2 0.0 2.0 36 36
- 0.829143 0 1 cbr 512 ------- 2 0.0 2.0 36 36
r 0.829906 0 1 cbr 512 ------- 2 0.0 2.0 33 33
+ 0.829906 1 2 cbr 512 ------- 2 0.0 2.0 33 33
- 0.829906 1 2 cbr 512 ------- 2 0.0 2.0 33 33
r 0.83067 1 2 cbr 512 ------- 2 0.0 2.0 30 30
+ 0.838286 0 1 cbr 512 ------- 2 0.0 2.0 37 37
- 0.838286 0 1 cbr 512 ------- 2 0.0 2.0 37 37
r 0.839049 0 1 cbr 512 ------- 2 0.0 2.0 34 34
+ 0.839049 1 2 cbr 512 ------- 2 0.0 2.0 34 34
- 0.839049 1 2 cbr 512 ------- 2 0.0 2.0 34 34
r 0.839813 1 2 cbr 512 ------- 2 0.0 2.0 31 31
+ 0.847429 0 1 cbr 512 ------- 2 0.0 2.0 38 38
- 0.847429 0 1 cbr 512 ------- 2 0.0 2.0 38 38
r 0.848192 0 1 cbr 512 ------- 2 0.0 2.0 35 35
+ 0.848192 1 2 cbr 512 ------- 2 0.0 2.0 35 35
- 0.848192 1 2 cbr 512 ------- 2 0.0 2.0 35 35
r 0.848955 1 2 cbr 512 ------- 2 0.0 2.0 32 32
+ 0.856571 0 1 cbr 512 ------- 2 0.0 2.0 39 39
- 0.856571 0 1 cbr 512 ------- 2 0.0 2.0 39 39
r 0.857335 0 1 cbr 512 ------- 2 0.0 2.0 36 36
+ 0.857335 1 2 cbr 512 ------- 2 0.0 2.0 36 36
- 0.857335 1 2 cbr 512 ------- 2 0.0 2.0 36 36
r 0.858098 1 2 cbr 512 ------- 2 0.0 2.0 33 33
+ 0.865714 0 1 cbr 512 ------- 2 0.0 2.0 40 40
- 0.865714 0 1 cbr 512 ------- 2 0.0 2.0 40 40
r 0.866478 0 1 cbr 512 ------- 2 0.0 2.0 37 37
+ 0.866478 1 2 cbr 512 ------- 2 0.0 2.0 37 37
- 0.866478 1 2 cbr 512 ------- 2 0.0 2.0 37 37
r 0.867241 1 2 cbr 512 ------- 2 0.0 2.0 34 34
+ 0.874857 0 1 cbr 512 ------- 2 0.0 2.0 41 41
- 0.874857 0 1 cbr 512 ------- 2 0.0 2.0 41 41
r 0.875621 0 1 cbr 512 ------- 2 0.0 2.0 38 38
+ 0.875621 1 2 cbr 512 ------- 2 0.0 2.0 38 38
- 0.875621 1 2 cbr 512 ------- 2 0.0 2.0 38 38
r 0.876384 1 2 cbr 512 ------- 2 0.0 2.0 35 35
+ 0.884 0 1 cbr 512 ------- 2 0.0 2.0 42 42
- 0.884 0 1 cbr 512 ------- 2 0.0 2.0 42 42
r 0.884763 0 1 cbr 512 ------- 2 0.0 2.0 39 39
+ 0.884763 1 2 cbr 512 ------- 2 0.0 2.0 39 39
- 0.884763 1 2 cbr 512 ------- 2 0.0 2.0 39 39
r 0.885527 1 2 cbr 512 ------- 2 0.0 2.0 36 36
+ 0.893143 0 1 cbr 512 ------- 2 0.0 2.0 43 43
- 0.893143 0 1 cbr 512 ------- 2 0.0 2.0 43 43
r 0.893906 0 1 cbr 512 ------- 2 0.0 2.0 40 40
+ 0.893906 1 2 cbr 512 ------- 2 0.0 2.0 40 40
- 0.893906 1 2 cbr 512 ------- 2 0.0 2.0 40 40
r 0.89467 1 2 cbr 512 ------- 2 0.0 2.0 37 37
+ 0.902286 0 1 cbr 512 ------- 2 0.0 2.0 44 44
- 0.902286 0 1 cbr 512 ------- 2 0.0 2.0 44 44
r 0.903049 0 1 cbr 512 ------- 2 0.0 2.0 41 41
+ 0.903049 1 2 cbr 512 ------- 2 0.0 2.0 41 41
- 0.903049 1 2 cbr 512 ------- 2 0.0 2.0 41 41
r 0.903813 1 2 cbr 512 ------- 2 0.0 2.0 38 38
+ 0.911429 0 1 cbr 512 ------- 2 0.0 2.0 45 45
- 0.911429 0 1 cbr 512 ------- 2 0.0 2.0 45 45
r 0.912192 0 1 cbr 512 ------- 2 0.0 2.0 42 42
+ 0.912192 1 2 cbr 512 ------- 2 0.0 2.0 42 42
- 0.912192 1 2 cbr 512 ------- 2 0.0 2.0 42 42
r 0.912955 1 2 cbr 512 ------- 2 0.0 2.0 39 39
+ 0.920571 0 1 cbr 512 ------- 2 0.0 2.0 46 46
- 0.920571 0 1 cbr 512 ------- 2 0.0 2.0 46 46
r 0.921335 0 1 cbr 512 ------- 2 0.0 2.0 43 43
+ 0.921335 1 2 cbr 512 ------- 2 0.0 2.0 43 43
- 0.921335 1 2 cbr 512 ------- 2 0.0 2.0 43 43
r 0.922098 1 2 cbr 512 ------- 2 0.0 2.0 40 40
+ 0.929714 0 1 cbr 512 ------- 2 0.0 2.0 47 47
- 0.929714 0 1 cbr 512 ------- 2 0.0 2.0 47 47
r 0.930478 0 1 cbr 512 ------- 2 0.0 2.0 44 44
+ 0.930478 1 2 cbr 512 ------- 2 0.0 2.0 44 44
- 0.930478 1 2 cbr 512 ------- 2 0.0 2.0 44 44
r 0.931241 1 2 cbr 512 ------- 2 0.0 2.0 41 41
+ 0.938857 0 1 cbr 512 ------- 2 0.0 2.0 48 48
- 0.938857 0 1 cbr 512 ------- 2 0.0 2.0 48 48
r 0.939621 0 1 cbr 512 ------- 2 0.0 2.0 45 45
+ 0.939621 1 2 cbr 512 ------- 2 0.0 2.0 45 45
- 0.939621 1 2 cbr 512 ------- 2 0.0 2.0 45 45
r 0.940384 1 2 cbr 512 ------- 2 0.0 2.0 42 42
+ 0.948 0 1 cbr 512 ------- 2 0.0 2.0 49 49
- 0.948 0 1 cbr 512 ------- 2 0.0 2.0 49 49
r 0.948763 0 1 cbr 512 ------- 2 0.0 2.0 46 46
+ 0.948763 1 2 cbr 512 ------- 2 0.0 2.0 46 46
- 0.948763 1 2 cbr 512 ------- 2 0.0 2.0 46 46
r 0.949527 1 2 cbr 512 ------- 2 0.0 2.0 43 43
+ 0.957143 0 1 cbr 512 ------- 2 0.0 2.0 50 50
- 0.957143 0 1 cbr 512 ------- 2 0.0 2.0 50 50
r 0.957906 0 1 cbr 512 ------- 2 0.0 2.0 47 47
+ 0.957906 1 2 cbr 512 ------- 2 0.0 2.0 47 47
- 0.957906 1 2 cbr 512 ------- 2 0.0 2.0 47 47
r 0.95867 1 2 cbr 512 ------- 2 0.0 2.0 44 44
+ 0.966286 0 1 cbr 512 ------- 2 0.0 2.0 51 51
- 0.966286 0 1 cbr 512 ------- 2 0.0 2.0 51 51
r 0.967049 0 1 cbr 512 ------- 2 0.0 2.0 48 48
+ 0.967049 1 2 cbr 512 ------- 2 0.0 2.0 48 48
- 0.967049 1 2 cbr 512 ------- 2 0.0 2.0 48 48
r 0.967813 1 2 cbr 512 ------- 2 0.0 2.0 45 45
+ 0.975429 0 1 cbr 512 ------- 2 0.0 2.0 52 52
- 0.975429 0 1 cbr 512 ------- 2 0.0 2.0 52 52
r 0.976192 0 1 cbr 512 ------- 2 0.0 2.0 49 49
+ 0.976192 1 2 cbr 512 ------- 2 0.0 2.0 49 49
- 0.976192 1 2 cbr 512 ------- 2 0.0 2.0 49 49
r 0.976955 1 2 cbr 512 ------- 2 0.0 2.0 46 46
+ 0.984571 0 1 cbr 512 ------- 2 0.0 2.0 53 53
- 0.984571 0 1 cbr 512 ------- 2 0.0 2.0 53 53
r 0.985335 0 1 cbr 512 ------- 2 0.0 2.0 50 50
+ 0.985335 1 2 cbr 512 ------- 2 0.0 2.0 50 50
- 0.985335 1 2 cbr 512 ------- 2 0.0 2.0 50 50
r 0.986098 1 2 cbr 512 ------- 2 0.0 2.0 47 47
+ 0.993714 0 1 cbr 512 ------- 2 0.0 2.0 54 54
- 0.993714 0 1 cbr 512 ------- 2 0.0 2.0 54 54
r 0.994478 0 1 cbr 512 ------- 2 0.0 2.0 51 51
+ 0.994478 1 2 cbr 512 ------- 2 0.0 2.0 51 51
- 0.994478 1 2 cbr 512 ------- 2 0.0 2.0 51 51
r 0.995241 1 2 cbr 512 ------- 2 0.0 2.0 48 48
+ 1.002857 0 1 cbr 512 ------- 2 0.0 2.0 55 55
- 1.002857 0 1 cbr 512 ------- 2 0.0 2.0 55 55
r 1.003621 0 1 cbr 512 ------- 2 0.0 2.0 52 52
+ 1.003621 1 2 cbr 512 ------- 2 0.0 2.0 52 52
- 1.003621 1 2 cbr 512 ------- 2 0.0 2.0 52 52
r 1.004384 1 2 cbr 512 ------- 2 0.0 2.0 49 49
+ 1.012 0 1 cbr 512 ------- 2 0.0 2.0 56 56
- 1.012 0 1 cbr 512 ------- 2 0.0 2.0 56 56
r 1.012763 0 1 cbr 512 ------- 2 0.0 2.0 53 53
+ 1.012763 1 2 cbr 512 ------- 2 0.0 2.0 53 53
- 1.012763 1 2 cbr 512 ------- 2 0.0 2.0 53 53
r 1.013527 1 2 cbr 512 ------- 2 0.0 2.0 50 50
+ 1.021143 0 1 cbr 512 ------- 2 0.0 2.0 57 57
- 1.021143 0 1 cbr 512 ------- 2 0.0 2.0 57 57
r 1.021906 0 1 cbr 512 ------- 2 0.0 2.0 54 54
+ 1.021906 1 2 cbr 512 ------- 2 0.0 2.0 54 54
- 1.021906 1 2 cbr 512 ------- 2 0.0 2.0 54 54
r 1.02267 1 2 cbr 512 ------- 2 0.0 2.0 51 51
+ 1.030286 0 1 cbr 512 ------- 2 0.0 2.0 58 58
- 1.030286 0 1 cbr 512 ------- 2 0.0 2.0 58 58
r 1.031049 0 1 cbr 512 ------- 2 0.0 2.0 55 55
+ 1.031049 1 2 cbr 512 ------- 2 0.0 2.0 55 55
- 1.031049 1 2 cbr 512 ------- 2 0.0 2.0 55 55
r 1.031813 1 2 cbr 512 ------- 2 0.0 2.0 52 52
+ 1.039429 0 1 cbr 512 ------- 2 0.0 2.0 59 59
- 1.039429 0 1 cbr 512 ------- 2 0.0 2.0 59 59
r 1.040192 0 1 cbr 512 ------- 2 0.0 2.0 56 56
+ 1.040192 1 2 cbr 512 ------- 2 0.0 2.0 56 56
- 1.040192 1 2 cbr 512 ------- 2 0.0 2.0 56 56
r 1.040955 1 2 cbr 512 ------- 2 0.0 2.0 53 53
+ 1.048571 0 1 cbr 512 ------- 2 0.0 2.0 60 60
- 1.048571 0 1 cbr 512 ------- 2 0.0 2.0 60 60
r 1.049335 0 1 cbr 512 ------- 2 0.0 2.0 57 57
+ 1.049335 1 2 cbr 512 ------- 2 0.0 2.0 57 57
- 1.049335 1 2 cbr 512 ------- 2 0.0 2.0 57 57
r 1.050098 1 2 cbr 512 ------- 2 0.0 2.0 54 54
+ 1.057714 0 1 cbr 512 ------- 2 0.0 2.0 61 61
- 1.057714 0 1 cbr 512 ------- 2 0.0 2.0 61 61
r 1.058478 0 1 cbr 512 ------- 2 0.0 2.0 58 58
+ 1.058478 1 2 cbr 512 ------- 2 0.0 2.0 58 58
- 1.058478 1 2 cbr 512 ------- 2 0.0 2.0 58 58
r 1.059241 1 2 cbr 512 ------- 2 0.0 2.0 55 55
+ 1.066857 0 1 cbr 512 ------- 2 0.0 2.0 62 62
- 1.066857 0 1 cbr 512 ------- 2 0.0 2.0 62 62
r 1.067621 0 1 cbr 512 ------- 2 0.0 2.0 59 59
+ 1.067621 1 2 cbr 512 ------- 2 0.0 2.0 59 59
- 1.067621 1 2 cbr 512 ------- 2 0.0 2.0 59 59
r 1.068384 1 2 cbr 512 ------- 2 0.0 2.0 56 56
+ 1.076 0 1 cbr 512 ------- 2 0.0 2.0 63 63
- 1.076 0 1 cbr 512 ------- 2 0.0 2.0 63 63
r 1.076763 0 1 cbr 512 ------- 2 0.0 2.0 60 60
+ 1.076763 1 2 cbr 512 ------- 2 0.0 2.0 60 60
- 1.076763 1 2 cbr 512 ------- 2 0.0 2.0 60 60
r 1.077527 1 2 cbr 512 ------- 2 0.0 2.0 57 57
+ 1.085143 0 1 cbr 512 ------- 2 0.0 2.0 64 64
- 1.085143 0 1 cbr 512 ------- 2 0.0 2.0 64 64
r 1.085906 0 1 cbr 512 ------- 2 0.0 2.0 61 61
+ 1.085906 1 2 cbr 512 ------- 2 0.0 2.0 61 61
- 1.085906 1 2 cbr 512 ------- 2 0.0 2.0 61 61
r 1.08667 1 2 cbr 512 ------- 2 0.0 2.0 58 58
+ 1.094286 0 1 cbr 512 ------- 2 0.0 2.0 65 65
- 1.094286 0 1 cbr 512 ------- 2 0.0 2.0 65 65
r 1.095049 0 1 cbr 512 ------- 2 0.0 2.0 62 62
+ 1.095049 1 2 cbr 512 ------- 2 0.0 2.0 62 62
- 1.095049 1 2 cbr 512 ------- 2 0.0 2.0 62 62
r 1.095813 1 2 cbr 512 ------- 2 0.0 2.0 59 59
+ 1.103429 0 1 cbr 512 ------- 2 0.0 2.0 66 66
- 1.103429 0 1 cbr 512 ------- 2 0.0 2.0 66 66
r 1.104192 0 1 cbr 512 ------- 2 0.0 2.0 63 63
+ 1.104192 1 2 cbr 512 ------- 2 0.0 2.0 63 63
- 1.104192 1 2 cbr 512 ------- 2 0.0 2.0 63 63
r 1.104955 1 2 cbr 512 ------- 2 0.0 2.0 60 60
+ 1.112571 0 1 cbr 512 ------- 2 0.0 2.0 67 67
- 1.112571 0 1 cbr 512 ------- 2 0.0 2.0 67 67
r 1.113335 0 1 cbr 512 ------- 2 0.0 2.0 64 64
+ 1.113335 1 2 cbr 512 ------- 2 0.0 2.0 64 64
- 1.113335 1 2 cbr 512 ------- 2 0.0 2.0 64 64
r 1.114098 1 2 cbr 512 ------- 2 0.0 2.0 61 61
+ 1.121714 0 1 cbr 512 ------- 2 0.0 2.0 68 68
- 1.121714 0 1 cbr 512 ------- 2 0.0 2.0 68 68
r 1.122478 0 1 cbr 512 ------- 2 0.0 2.0 65 65
+ 1.122478 1 2 cbr 512 ------- 2 0.0 2.0 65 65
- 1.122478 1 2 cbr 512 ------- 2 0.0 2.0 65 65
r 1.123241 1 2 cbr 512 ------- 2 0.0 2.0 62 62
+ 1.130857 0 1 cbr 512 ------- 2 0.0 2.0 69 69
- 1.130857 0 1 cbr 512 ------- 2 0.0 2.0 69 69
r 1.131621 0 1 cbr 512 ------- 2 0.0 2.0 66 66
+ 1.131621 1 2 cbr 512 ------- 2 0.0 2.0 66 66
- 1.131621 1 2 cbr 512 ------- 2 0.0 2.0 66 66
r 1.132384 1 2 cbr 512 ------- 2 0.0 2.0 63 63
+ 1.14 0 1 cbr 512 ------- 2 0.0 2.0 70 70
- 1.14 0 1 cbr 512 ------- 2 0.0 2.0 70 70
r 1.140763 0 1 cbr 512 ------- 2 0.0 2.0 67 67
+ 1.140763 1 2 cbr 512 ------- 2 0.0 2.0 67 67
- 1.140763 1 2 cbr 512 ------- 2 0.0 2.0 67 67
r 1.141527 1 2 cbr 512 ------- 2 0.0 2.0 64 64
+ 1.149143 0 1 cbr 512 ------- 2 0.0 2.0 71 71
- 1.149143 0 1 cbr 512 ------- 2 0.0 2.0 71 71
r 1.149906 0 1 cbr 512 ------- 2 0.0 2.0 68 68
+ 1.149906 1 2 cbr 512 ------- 2 0.0 2.0 68 68
- 1.149906 1 2 cbr 512 ------- 2 0.0 2.0 68 68
r 1.15067 1 2 cbr 512 ------- 2 0.0 2.0 65 65
+ 1.158286 0 1 cbr 512 ------- 2 0.0 2.0 72 72
- 1.158286 0 1 cbr 512 ------- 2 0.0 2.0 72 72
r 1.159049 0 1 cbr 512 ------- 2 0.0 2.0 69 69
+ 1.159049 1 2 cbr 512 ------- 2 0.0 2.0 69 69
- 1.159049 1 2 cbr 512 ------- 2 0.0 2.0 69 69
r 1.159813 1 2 cbr 512 ------- 2 0.0 2.0 66 66
+ 1.167429 0 1 cbr 512 ------- 2 0.0 2.0 73 73
- 1.167429 0 1 cbr 512 ------- 2 0.0 2.0 73 73
r 1.168192 0 1 cbr 512 ------- 2 0.0 2.0 70 70
+ 1.168192 1 2 cbr 512 ------- 2 0.0 2.0 70 70
- 1.168192 1 2 cbr 512 ------- 2 0.0 2.0 70 70
r 1.168955 1 2 cbr 512 ------- 2 0.0 2.0 67 67
+ 1.176571 0 1 cbr 512 ------- 2 0.0 2.0 74 74
- 1.176571 0 1 cbr 512 ------- 2 0.0 2.0 74 74
r 1.177335 0 1 cbr 512 ------- 2 0.0 2.0 71 71
+ 1.177335 1 2 cbr 512 ------- 2 0.0 2.0 71 71
- 1.177335 1 2 cbr 512 ------- 2 0.0 2.0 71 71
r 1.178098 1 2 cbr 512 ------- 2 0.0 2.0 68 68
+ 1.185714 0 1 cbr 512 ------- 2 0.0 2.0 75 75
- 1.185714 0 1 cbr 512 ------- 2 0.0 2.0 75 75
r 1.186478 0 1 cbr 512 ------- 2 0.0 2.0 72 72
+ 1.186478 1 2 cbr 512 ------- 2 0.0 2.0 72 72
- 1.186478 1 2 cbr 512 ------- 2 0.0 2.0 72 72
r 1.187241 1 2 cbr 512 ------- 2 0.0 2.0 69 69
+ 1.194857 0 1 cbr 512 ------- 2 0.0 2.0 76 76
- 1.194857 0 1 cbr 512 ------- 2 0.0 2.0 76 76
r 1.195621 0 1 cbr 512 ------- 2 0.0 2.0 73 73
+ 1.195621 1 2 cbr 512 ------- 2 0.0 2.0 73 73
- 1.195621 1 2 cbr 512 ------- 2 0.0 2.0 73 73
r 1.196384 1 2 cbr 512 ------- 2 0.0 2.0 70 70
+ 1.204 0 1 cbr 512 ------- 2 0.0 2.0 77 77
- 1.204 0 1 cbr 512 ------- 2 0.0 2.0 77 77
r 1.204763 0 1 cbr 512 ------- 2 0.0 2.0 74 74
+ 1.204763 1 2 cbr 512 ------- 2 0.0 2.0 74 74
- 1.204763 1 2 cbr 512 ------- 2 0.0 2.0 74 74
r 1.205527 1 2 cbr 512 ------- 2 0.0 2.0 71 71
+ 1.213143 0 1 cbr 512 ------- 2 0.0 2.0 78 78
- 1.213143 0 1 cbr 512 ------- 2 0.0 2.0 78 78
r 1.213906 0 1 cbr 512 ------- 2 0.0 2.0 75 75
+ 1.213906 1 2 cbr 512 ------- 2 0.0 2.0 75 75
- 1.213906 1 2 cbr 512 ------- 2 0.0 2.0 75 75
r 1.21467 1 2 cbr 512 ------- 2 0.0 2.0 72 72
+ 1.222286 0 1 cbr 512 ------- 2 0.0 2.0 79 79
- 1.222286 0 1 cbr 512 ------- 2 0.0 2.0 79 79
r 1.223049 0 1 cbr 512 ------- 2 0.0 2.0 76 76
+ 1.223049 1 2 cbr 512 ------- 2 0.0 2.0 76 76
- 1.223049 1 2 cbr 512 ------- 2 0.0 2.0 76 76
r 1.223813 1 2 cbr 512 ------- 2 0.0 2.0 73 73
+ 1.231429 0 1 cbr 512 ------- 2 0.0 2.0 80 80
- 1.231429 0 1 cbr 512 ------- 2 0.0 2.0 80 80
r 1.232192 0 1 cbr 512 ------- 2 0.0 2.0 77 77
+ 1.232192 1 2 cbr 512 ------- 2 0.0 2.0 77 77
- 1.232192 1 2 cbr 512 ------- 2 0.0 2.0 77 77
r 1.232955 1 2 cbr 512 ------- 2 0.0 2.0 74 74
+ 1.240571 0 1 cbr 512 ------- 2 0.0 2.0 81 81
- 1.240571 0 1 cbr 512 ------- 2 0.0 2.0 81 81
r 1.241335 0 1 cbr 512 ------- 2 0.0 2.0 78 78
+ 1.241335 1 2 cbr 512 ------- 2 0.0 2.0 78 78
- 1.241335 1 2 cbr 512 ------- 2 0.0 2.0 78 78
r 1.242098 1 2 cbr 512 ------- 2 0.0 2.0 75 75
+ 1.249714 0 1 cbr 512 ------- 2 0.0 2.0 82 82
- 1.249714 0 1 cbr 512 ------- 2 0.0 2.0 82 82
r 1.250478 0 1 cbr 512 ------- 2 0.0 2.0 79 79
+ 1.250478 1 2 cbr 512 ------- 2 0.0 2.0 79 79
- 1.250478 1 2 cbr 512 ------- 2 0.0 2.0 79 79
r 1.251241 1 2 cbr 512 ------- 2 0.0 2.0 76 76
+ 1.258857 0 1 cbr 512 ------- 2 0.0 2.0 83 83
- 1.258857 0 1 cbr 512 ------- 2 0.0 2.0 83 83
r 1.259621 0 1 cbr 512 ------- 2 0.0 2.0 80 80
+ 1.259621 1 2 cbr 512 ------- 2 0.0 2.0 80 80
- 1.259621 1 2 cbr 512 ------- 2 0.0 2.0 80 80
r 1.260384 1 2 cbr 512 ------- 2 0.0 2.0 77 77
+ 1.268 0 1 cbr 512 ------- 2 0.0 2.0 84 84
- 1.268 0 1 cbr 512 ------- 2 0.0 2.0 84 84
r 1.268763 0 1 cbr 512 ------- 2 0.0 2.0 81 81
+ 1.268763 1 2 cbr 512 ------- 2 0.0 2.0 81 81
- 1.268763 1 2 cbr 512 ------- 2 0.0 2.0 81 81
r 1.269527 1 2 cbr 512 ------- 2 0.0 2.0 78 78
+ 1.277143 0 1 cbr 512 ------- 2 0.0 2.0 85 85
- 1.277143 0 1 cbr 512 ------- 2 0.0 2.0 85 85
r 1.277906 0 1 cbr 512 ------- 2 0.0 2.0 82 82
+ 1.277906 1 2 cbr 512 ------- 2 0.0 2.0 82 82
- 1.277906 1 2 cbr 512 ------- 2 0.0 2.0 82 82
r 1.27867 1 2 cbr 512 ------- 2 0.0 2.0 79 79
+ 1.286286 0 1 cbr 512 ------- 2 0.0 2.0 86 86
- 1.286286 0 1 cbr 512 ------- 2 0.0 2.0 86 86
r 1.287049 0 1 cbr 512 ------- 2 0.0 2.0 83 83
+ 1.287049 1 2 cbr 512 ------- 2 0.0 2.0 83 83
- 1.287049 1 2 cbr 512 ------- 2 0.0 2.0 83 83
r 1.287813 1 2 cbr 512 ------- 2 0.0 2.0 80 80
+ 1.295429 0 1 cbr 512 ------- 2 0.0 2.0 87 87
- 1.295429 0 1 cbr 512 ------- 2 0.0 2.0 87 87
r 1.296192 0 1 cbr 512 ------- 2 0.0 2.0 84 84
+ 1.296192 1 2 cbr 512 ------- 2 0.0 2.0 84 84
- 1.296192 1 2 cbr 512 ------- 2 0.0 2.0 84 84
r 1.296955 1 2 cbr 512 ------- 2 0.0 2.0 81 81
+ 1.304571 0 1 cbr 512 ------- 2 0.0 2.0 88 88
- 1.304571 0 1 cbr 512 ------- 2 0.0 2.0 88 88
r 1.305335 0 1 cbr 512 ------- 2 0.0 2.0 85 85
+ 1.305335 1 2 cbr 512 ------- 2 0.0 2.0 85 85
- 1.305335 1 2 cbr 512 ------- 2 0.0 2.0 85 85
r 1.306098 1 2 cbr 512 ------- 2 0.0 2.0 82 82
+ 1.313714 0 1 cbr 512 ------- 2 0.0 2.0 89 89
- 1.313714 0 1 cbr 512 ------- 2 0.0 2.0 89 89
r 1.314478 0 1 cbr 512 ------- 2 0.0 2.0 86 86
+ 1.314478 1 2 cbr 512 ------- 2 0.0 2.0 86 86
- 1.314478 1 2 cbr 512 ------- 2 0.0 2.0 86 86
r 1.315241 1 2 cbr 512 ------- 2 0.0 2.0 83 83
+ 1.322857 0 1 cbr 512 ------- 2 0.0 2.0 90 90
- 1.322857 0 1 cbr 512 ------- 2 0.0 2.0 90 90
r 1.323621 0 1 cbr 512 ------- 2 0.0 2.0 87 87
+ 1.323621 1 2 cbr 512 ------- 2 0.0 2.0 87 87
- 1.323621 1 2 cbr 512 ------- 2 0.0 2.0 87 87
r 1.324384 1 2 cbr 512 ------- 2 0.0 2.0 84 84
+ 1.332 0 1 cbr 512 ------- 2 0.0 2.0 91 91
- 1.332 0 1 cbr 512 ------- 2 0.0 2.0 91 91
r 1.332763 0 1 cbr 512 ------- 2 0.0 2.0 88 88
+ 1.332763 1 2 cbr 512 ------- 2 0.0 2.0 88 88
- 1.332763 1 2 cbr 512 ------- 2 0.0 2.0 88 88
r 1.333527 1 2 cbr 512 ------- 2 0.0 2.0 85 85
+ 1.341143 0 1 cbr 512 ------- 2 0.0 2.0 92 92
- 1.341143 0 1 cbr 512 ------- 2 0.0 2.0 92 92
r 1.341906 0 1 cbr 512 ------- 2 0.0 2.0 89 89
+ 1.341906 1 2 cbr 512 ------- 2 0.0 2.0 89 89
- 1.341906 1 2 cbr 512 ------- 2 0.0 2.0 89 89
r 1.34267 1 2 cbr 512 ------- 2 0.0 2.0 86 86
+ 1.350286 0 1 cbr 512 ------- 2 0.0 2.0 93 93
- 1.350286 0 1 cbr 512 ------- 2 0.0 2.0 93 93
r 1.351049 0 1 cbr 512 ------- 2 0.0 2.0 90 90
+ 1.351049 1 2 cbr 512 ------- 2 0.0 2.0 90 90
- 1.351049 1 2 cbr 512 ------- 2 0.0 2.0 90 90
r 1.351813 1 2 cbr 512 ------- 2 0.0 2.0 87 87
+ 1.359429 0 1 cbr 512 ------- 2 0.0 2.0 94 94
- 1.359429 0 1 cbr 512 ------- 2 0.0 2.0 94 94
r 1.360192 0 1 cbr 512 ------- 2 0.0 2.0 91 91
+ 1.360192 1 2 cbr 512 ------- 2 0.0 2.0 91 91
- 1.360192 1 2 cbr 512 ------- 2 0.0 2.0 91 91
r 1.360955 1 2 cbr 512 ------- 2 0.0 2.0 88 88
+ 1.368571 0 1 cbr 512 ------- 2 0.0 2.0 95 95
- 1.368571 0 1 cbr 512 ------- 2 0.0 2.0 95 95
r 1.369335 0 1 cbr 512 ------- 2 0.0 2.0 92 92
+ 1.369335 1 2 cbr 512 ------- 2 0.0 2.0 92 92
- 1.369335 1 2 cbr 512 ------- 2 0.0 2.0 92 92
r 1.370098 1 2 cbr 512 ------- 2 0.0 2.0 89 89
+ 1.377714 0 1 cbr 512 ------- 2 0.0 2.0 96 96
- 1.377714 0 1 cbr 512 ------- 2 0.0 2.0 96 96
r 1.378478 0 1 cbr 512 ------- 2 0.0 2.0 93 93
+ 1.378478 1 2 cbr 512 ------- 2 0.0 2.0 93 93
- 1.378478 1 2 cbr 512 ------- 2 0.0 2.0 93 93
r 1.379241 1 2 cbr 512 ------- 2 0.0 2.0 90 90
+ 1.386857 0 1 cbr 512 ------- 2 0.0 2.0 97 97
- 1.386857 0 1 cbr 512 ------- 2 0.0 2.0 97 97
r 1.387621 0 1 cbr 512 ------- 2 0.0 2.0 94 94
+ 1.387621 1 2 cbr 512 ------- 2 0.0 2.0 94 94
- 1.387621 1 2 cbr 512 ------- 2 0.0 2.0 94 94
r 1.388384 1 2 cbr 512 ------- 2 0.0 2.0 91 91
+ 1.396 0 1 cbr 512 ------- 2 0.0 2.0 98 98
- 1.396 0 1 cbr 512 ------- 2 0.0 2.0 98 98
r 1.396763 0 1 cbr 512 ------- 2 0.0 2.0 95 95
+ 1.396763 1 2 cbr 512 ------- 2 0.0 2.0 95 95
- 1.396763 1 2 cbr 512 ------- 2 0.0 2.0 95 95
r 1.397527 1 2 cbr 512 ------- 2 0.0 2.0 92 92
+ 1.405143 0 1 cbr 512 ------- 2 0.0 2.0 99 99
- 1.405143 0 1 cbr 512 ------- 2 0.0 2.0 99 99
r 1.405906 0 1 cbr 512 ------- 2 0.0 2.0 96 96
+ 1.405906 1 2 cbr 512 ------- 2 0.0 2.0 96 96
- 1.405906 1 2 cbr 512 ------- 2 0.0 2.0 96 96
r 1.40667 1 2 cbr 512 ------- 2 0.0 2.0 93 93
+ 1.414286 0 1 cbr 512 ------- 2 0.0 2.0 100 100
- 1.414286 0 1 cbr 512 ------- 2 0.0 2.0 100 100
r 1.415049 0 1 cbr 512 ------- 2 0.0 2.0 97 97
+ 1.415049 1 2 cbr 512 ------- 2 0.0 2.0 97 97
- 1.415049 1 2 cbr 512 ------- 2 0.0 2.0 97 97
r 1.415813 1 2 cbr 512 ------- 2 0.0 2.0 94 94
+ 1.423429 0 1 cbr 512 ------- 2 0.0 2.0 101 101
- 1.423429 0 1 cbr 512 ------- 2 0.0 2.0 101 101
r 1.424192 0 1 cbr 512 ------- 2 0.0 2.0 98 98
+ 1.424192 1 2 cbr 512 ------- 2 0.0 2.0 98 98
- 1.424192 1 2 cbr 512 ------- 2 0.0 2.0 98 98
r 1.424955 1 2 cbr 512 ------- 2 0.0 2.0 95 95
+ 1.432571 0 1 cbr 512 ------- 2 0.0 2.0 102 102
- 1.432571 0 1 cbr 512 ------- 2 0.0 2.0 102 102
r 1.433335 0 1 cbr 512 ------- 2 0.0 2.0 99 99
+ 1.433335 1 2 cbr 512 ------- 2 0.0 2.0 99 99
- 1.433335 1 2 cbr 512 ------- 2 0.0 2.0 99 99
r 1.434098 1 2 cbr 512 ------- 2 0.0 2.0 96 96
+ 1.441714 0 1 cbr 512 ------- 2 0.0 2.0 103 103
- 1.441714 0 1 cbr 512 ------- 2 0.0 2.0 103 103
r 1.442478 0 1 cbr 512 ------- 2 0.0 2.0 100 100
+ 1.442478 1 2 cbr 512 ------- 2 0.0 2.0 100 100
- 1.442478 1 2 cbr 512 ------- 2 0.0 2.0 100 100
r 1.443241 1 2 cbr 512 ------- 2 0.0 2.0 97 97
+ 1.450857 0 1 cbr 512 ------- 2 0.0 2.0 104 104
- 1.450857 0 1 cbr 512 ------- 2 0.0 2.0 104 104
r 1.451621 0 1 cbr 512 ------- 2 0.0 2.0 101 101
+ 1.451621 1 2 cbr 512 ------- 2 0.0 2.0 101 101
- 1.451621 1 2 cbr 512 ------- 2 0.0 2.0 101 101
r 1.452384 1 2 cbr 512 ------- 2 0.0 2.0 98 98
+ 1.46 0 1 cbr 512 ------- 2 0.0 2.0 105 105
- 1.46 0 1 cbr 512 ------- 2 0.0 2.0 105 105
r 1.460763 0 1 cbr 512 ------- 2 0.0 2.0 102 102
+ 1.460763 1 2 cbr 512 ------- 2 0.0 2.0 102 102
- 1.460763 1 2 cbr 512 ------- 2 0.0 2.0 102 102
r 1.461527 1 2 cbr 512 ------- 2 0.0 2.0 99 99
+ 1.469143 0 1 cbr 512 ------- 2 0.0 2.0 106 106
- 1.469143 0 1 cbr 512 ------- 2 0.0 2.0 106 106
r 1.469906 0 1 cbr 512 ------- 2 0.0 2.0 103 103
+ 1.469906 1 2 cbr 512 ------- 2 0.0 2.0 103 103
- 1.469906 1 2 cbr 512 ------- 2 0.0 2.0 103 103
r 1.47067 1 2 cbr 512 ------- 2 0.0 2.0 100 100
+ 1.478286 0 1 cbr 512 ------- 2 0.0 2.0 107 107
- 1.478286 0 1 cbr 512 ------- 2 0.0 2.0 107 107
r 1.479049 0 1 cbr 512 ------- 2 0.0 2.0 104 104
+ 1.479049 1 2 cbr 512 ------- 2 0.0 2.0 104 104
- 1.479049 1 2 cbr 512 ------- 2 0.0 2.0 104 104
r 1.479813 1 2 cbr 512 ------- 2 0.0 2.0 101 101
+ 1.487429 0 1 cbr 512 ------- 2 0.0 2.0 108 108
- 1.487429 0 1 cbr 512 ------- 2 0.0 2.0 108 108
r 1.488192 0 1 cbr 512 ------- 2 0.0 2.0 105 105
+ 1.488192 1 2 cbr 512 ------- 2 0.0 2.0 105 105
- 1.488192 1 2 cbr 512 ------- 2 0.0 2.0 105 105
r 1.488955 1 2 cbr 512 ------- 2 0.0 2.0 102 102
+ 1.496571 0 1 cbr 512 ------- 2 0.0 2.0 109 109
- 1.496571 0 1 cbr 512 ------- 2 0.0 2.0 109 109