V -t * -v 1.0a5 -a 0
A -t * -n 1 -p 0 -o 0x7fffffff -c 30 -a 1
A -t * -h 1 -m 1073741823 -s 0
c -t * -i 2 -n red
n -t * -a 0 -s 0 -S UP -v hexagon -c red -i red
n -t * -a 1 -s 1 -S UP -v circle -c black -i black
n -t * -a 2 -s 2 -S UP -v square -c blue -i blue
l -t * -s 0 -d 1 -S UP -r 500000 -D 0.02 -c black
l -t * -s 1 -d 2 -S UP -r 500000 -D 0.02 -c black
+ -t 0.5 -s 0 -d 1 -p cbr -e 512 -c 2 -i 0 -a 2 -x {0.0 2.0 0 ------- null}
- -t 0.5 -s 0 -d 1 -p cbr -e 512 -c 2 -i 0 -a 2 -x {0.0 2.0 0 ------- null}
h -t 0.5 -s 0 -d 1 -p cbr -e 512 -c 2 -i 0 -a 2 -x {0.0 2.0 -1 ------- null}
+ -t 0.509142857142857 -s 0 -d 1 -p cbr -e 512 -c 2 -i 1 -a 2 -x {0.0 2.0 1 ------- null}
- -t 0.509142857142857 -s 0 -d 1 -p cbr -e 512 -c 2 -i 1 -a 2 -x {0.0 2.0 1 ------- null}
h -t 0.509142857142857 -s 0 -d 1 -p cbr -e 512 -c 2 -i 1 -a 2 -x {0.0 2.0 -1 ------- null}
+ -t 0.518285714285714 -s 0 -d 1 -p cbr -e 512 -c 2 -i 2 -a 2 -x {0.0 2.0 2 ------- null}
- -t 0.518285714285714 -s 0 -d 1 -p cbr -e 512 -c 2 -i 2 -a 2 -x {0.0 2.0 2 ------- null}
h -t 0.518285714285714 -s 0 -d 1 -p cbr -e 512 -c 2 -i 2 -a 2 -x {0.0 2.0 -1 ------- null}
+ -t 0.527428571428571 -s 0 -d 1 -p cbr -e 512 -c 2 -i 3 -a 2 -x {0.0 2.0 3 ------- null}
- -t 0.527428571428571 -s 0 -d 1 -p cbr -e 512 -c 2 -i 3 -a 2 -x {0.0 2.0 3 ------- null}
h -t 0.527428571428571 -s 0 -d 1 -p cbr -e 512 -c 2 -i 3 -a 2 -x {0.0 2.0 -1 ------- null}
r -t 0.528192 -s 0 -d 1 -p cbr -e 512 -c 2 -i 0 -a 2 -x {0.0 2.0 0 ------- null}
+ -t 0.528192 -s 1 -d 2 -p cbr -e 512 -c 2 -i 0 -a 2 -x {0.0 2.0 0 ------- null}
- -t 0.528192 -s 1 -d 2 -p cbr -e 512 -c 2 -i 0 -a 2 -x {0.0 2.0 0 ------- null}
h -t 0.528192 -s 1 -d 2 -p cbr -e 512 -c 2 -i 0 -a 2 -x {0.0 2.0 -1 ------- null}
+ -t 0.536571428571428 -s 0 -d 1 -p cbr -e 512 -c 2 -i 4 -a 2 -x {0.0 2.0 4 ------- null}
- -t 0.536571428571428 -s 0 -d 1 -p cbr -e 512 -c 2 -i 4 -a 2 -x {0.0 2.0 4 ------- null}
h -t 0.536571428571428 -s 0 -d 1 -p cbr -e 512 -c 2 -i 4 -a 2 -x {0.0 2.0 -1 ------- null}
r -t 0.537334857142857 -s 0 -d 1 -p cbr -e 512 -c 2 -i 1 -a 2 -x {0.0 2.0 1 ------- null}
+ -t 0.537334857142857 -s 1 -d 2 -p cbr -e 512 -c 2 -i 1 -a 2 -x {0.0 2.0 1 ------- null}
- -t 0.537334857142857 -s 1 -d 2 -p cbr -e 512 -c 2 -i 1 -a 2 -x {0.0 2.0 1 ------- null}
h -t 0.537334857142857 -s 1 -d 2 -p cbr -e 512 -c 2 -i 1 -a 2 -x {0.0 2.0 -1 ------- null}
+ -t 0.545714285714286 -s 0 -d 1 -p cbr -e 512 -c 2 -i 5 -a 2 -x {0.0 2.0 5 ------- null}
- -t 0.545714285714286 -s 0 -d 1 -p cbr -e 512 -c 2 -i 5 -a 2 -x {0.0 2.0 5 ------- null}
h -t 0.545714285714286 -s 0 -d 1 -p cbr -e 512 -c 2 -i 5 -a 2 -x {0.0 2.0 -1 ------- null}
r -t 0.546477714285714 -s 0 -d 1 -p cbr -e 512 -c 2 -i 2 -a 2 -x {0.0 2.0 2 ------- null}
+ -t 0.546477714285714 -s 1 -d 2 -p cbr -e 512 -c 2 -i 2 -a 2 -x {0.0 2.0 2 ------- null}
- -t 0.546477714285714 -s 1 -d 2 -p cbr -e 512 -c 2 -i 2 -a 2 -x {0.0 2.0 2 ------- null}
h -t 0.546477714285714 -s 1 -d 2 -p cbr -e 512 -c 2 -i 2 -a 2 -x {0.0 2.0 -1 ------- null}
+ -t 0.554857142857143 -s 0 -d 1 -p cbr -e 512 -c 2 -i 6 -a 2 -x {0.0 2.0 6 ------- null}
- -t 0.554857142857143 -s 0 -d 1 -p cbr -e 512 -c 2 -i 6 -a 2 -x {0.0 2.0 6 ------- null}
h -t 0.554857142857143 -s 0 -d 1 -p cbr -e 512 -c 2 -i 6 -a 2 -x {0.0 2.0 -1 ------- null}
r -t 0.555620571428571 -s 0 -d 1 -p cbr -e 512 -c 2 -i 3 -a 2 -x {0.0 2.0 3 ------- null}
+ -t 0.555620571428571 -s 1 -d 2 -p cbr -e 512 -c 2 -i 3 -a 2 -x {0.0 2.0 3 ------- null}
- -t 0.555620571428571 -s 1 -d 2 -p cbr -e 512 -c 2 -i 3 -a 2 -x {0.0 2.0 3 ------- null}
h -t 0.555620571428571 -s 1 -d 2 -p cbr -e 512 -c 2 -i 3 -a 2 -x {0.0 2.0 -1 ------- null}
r -t 0.556384 -s 1 -d 2 -p cbr -e 512 -c 2 -i 0 -a 2 -x {0.0 2.0 0 ------- null}
+ -t 0.564 -s 0 -d 1 -p cbr -e 512 -c 2 -i 7 -a 2 -x {0.0 2.0 7 ------- null}
- -t 0.564 -s 0 -d 1 -p cbr -e 512 -c 2 -i 7 -a 2 -x {0.0 2.0 7 ------- null}
h -t 0.564 -s 0 -d 1 -p cbr -e 512 -c 2 -i 7 -a 2 -x {0.0 2.0 -1 ------- null}
r -t 0.564763428571428 -s 0 -d 1 -p cbr -e 512 -c 2 -i 4 -a 2 -x {0.0 2.0 4 ------- null}
+ -t 0.564763428571428 -s 1 -d 2 -p cbr -e 512 -c 2 -i 4 -a 2 -x {0.0 2.0 4 ------- null}
- -t 0.564763428571428 -s 1 -d 2 -p cbr -e 512 -c 2 -i 4 -a 2 -x {0.0 2.0 4 ------- null}
h -t 0.564763428571428 -s 1 -d 2 -p cbr -e 512 -c 2 -i 4 -a 2 -x {0.0 2.0 -1 ------- null}
r -t 0.565526857142857 -s 1 -d 2 -p cbr -e 512 -c 2 -i 1 -a 2 -x {0.0 2.0 1 ------- null}
+ -t 0.573142857142857 -s 0 -d 1 -p cbr -e 512 -c 2 -i 8 -a 2 -x {0.0 2.0 8 ------- null}
- -t 0.573142857142857 -s 0 -d 1 -p cbr -e 512 -c 2 -i 8 -a 2 -x {0.0 2.0 8 ------- null}
h -t 0.573142857142857 -s 0 -d 1 -p cbr -e 512 -c 2 -i 8 -a 2 -x {0.0 2.0 -1 ------- null}
r -t 0.573906285714286 -s 0 -d 1 -p cbr -e 512 -c 2 -i 5 -a 2 -x {0.0 2.0 5 ------- null}
+ -t 0.573906285714286 -s 1 -d 2 -p cbr -e 512 -c 2 -i 5 -a 2 -x {0.0 2.0 5 ------- null}
- -t 0.573906285714286 -s 1 -d 2 -p cbr -e 512 -c 2 -i 5 -a 2 -x {0.0 2.0 5 ------- null}
h -t 0.573906285714286 -s 1 -d 2 -p cbr -e 512 -c 2 -i 5 -a 2 -x {0.0 2.0 -1 ------- null}
r -t 0.574669714285714 -s 1 -d 2 -p cbr -e 512 -c 2 -i 2 -a 2 -x {0.0 2.0 2 ------- null}
+ -t 0.582285714285714 -s 0 -d 1 -p cbr -e 512 -c 2 -i 9 -a 2 -x {0.0 2.0 9 ------- null}
- -t 0.582285714285714 -s 0 -d 1 -p cbr -e 512 -c 2 -i 9 -a 2 -x {0.0 2.0 9 ------- null}
h -t 0.582285714285714 -s 0 -d 1 -p cbr -e 512 -c 2 -i 9 -a 2 -x {0.0 2.0 -1 ------- null}
r -t 0.583049142857143 -s 0 -d 1 -p cbr -e 512 -c 2 -i 6 -a 2 -x {0.0 2.0 6 ------- null}
+ -t 0.583049142857143 -s 1 -d 2 -p cbr -e 512 -c 2 -i 6 -a 2 -x {0.0 2.0 6 ------- null}
- -t 0.583049142857143 -s 1 -d 2 -p cbr -e 512 -c 2 -i 6 -a 2 -x {0.0 2.0 6 ------- null}
h -t 0.583049142857143 -s 1 -d 2 -p cbr -e 512 -c 2 -i 6 -a 2 -x {0.0 2.0 -1 ------- null}
r -t 0.583812571428571 -s 1 -d 2 -p cbr -e 512 -c 2 -i 3 -a 2 -x {0.0 2.0 3 ------- null}
+ -t 0.591428571428571 -s 0 -d 1 -p cbr -e 512 -c 2 -i 10 -a 2 -x {0.0 2.0 10 ------- null}
- -t 0.591428571428571 -s 0 -d 1 -p cbr -e 512 -c 2 -i 10 -a 2 -x {0.0 2.0 10 ------- null}
h -t 0.591428571428571 -s 0 -d 1 -p cbr -e 512 -c 2 -i 10 -a 2 -x {0.0 2.0 -1 ------- null}
r -t 0.592192 -s 0 -d 1 -p cbr -e 512 -c 2 -i 7 -a 2 -x {0.0 2.0 7 ------- null}
+ -t 0.592192 -s 1 -d 2 -p cbr -e 512 -c 2 -i 7 -a 2 -x {0.0 2.0 7 ------- null}
- -t 0.592192 -s 1 -d 2 -p cbr -e 512 -c 2 -i 7 -a 2 -x {0.0 2.0 7 ------- null}
h -t 0.592192 -s 1 -d 2 -p cbr -e 512 -c 2 -i 7 -a 2 -x {0.0 2.0 -1 ------- null}
r -t 0.592955428571428 -s 1 -d 2 -p cbr -e 512 -c 2 -i 4 -a 2 -x {0.0 2.0 4 ------- null}
+ -t 0.600571428571428 -s 0 -d 1 -p cbr -e 512 -c 2 -i 11 -a 2 -x {0.0 2.0 11 ------- null}
- -t 0.600571428571428 -s 0 -d 1 -p cbr -e 512 -c 2 -i 11 -a 2 -x {0.0 2.0 11 ------- null}
h -t 0.600571428571428 -s 0 -d 1 -p cbr -e 512 -c 2 -i 11 -a 2 -x {0.0 2.0 -1 ------- null}
r -t 0.601334857142857 -s 0 -d 1 -p cbr -e 512 -c 2 -i 8 -a 2 -x {0.0 2.0 8 ------- null}
+ -t 0.601334857142857 -s 1 -d 2 -p cbr -e 512 -c 2 -i 8 -a 2 -x {0.0 2.0 8 ------- null}
- -t 0.601334857142857 -s 1 -d 2 -p cbr -e 512 -c 2 -i 8 -a 2 -x {0.0 2.0 8 ------- null}
h -t 0.601334857142857 -s 1 -d 2 -p cbr -e 512 -c 2 -i 8 -a 2 -x {0.0 2.0 -1 ------- null}
r -t 0.602098285714286 -s 1 -d 2 -p cbr -e 512 -c 2 -i 5 -a 2 -x {0.0 2.0 5 ------- null}
+ -t 0.609714285714285 -s 0 -d 1 -p cbr -e 512 -c 2 -i 12 -a 2 -x {0.0 2.0 12 ------- null}
- -t 0.609714285714285 -s 0 -d 1 -p cbr -e 512 -c 2 -i 12 -a 2 -x {0.0 2.0 12 ------- null}
h -t 0.609714285714285 -s 0 -d 1 -p cbr -e 512 -c 2 -i 12 -a 2 -x {0.0 2.0 -1 ------- null}
r -t 0.610477714285714 -s 0 -d 1 -p cbr -e 512 -c 2 -i 9 -a 2 -x {0.0 2.0 9 ------- null}
+ -t 0.610477714285714 -s 1 -d 2 -p cbr -e 512 -c 2 -i 9 -a 2 -x {0.0 2.0 9 ------- null}
- -t 0.610477714285714 -s 1 -d 2 -p cbr -e 512 -c 2 -i 9 -a 2 -x {0.0 2.0 9 ------- null}
h -t 0.610477714285714 -s 1 -d 2 -p cbr -e 512 -c 2 -i 9 -a 2 -x {0.0 2.0 -1 ------- null}
r -t 0.611241142857143 -s 1 -d 2 -p cbr -e 512 -c 2 -i 6 -a 2 -x {0.0 2.0 6 ------- null}
+ -t 0.618857142857143 -s 0 -d 1 -p cbr -e 512 -c 2 -i 13 -a 2 -x {0.0 2.0 13 ------- null}
- -t 0.618857142857143 -s 0 -d 1 -p cbr -e 512 -c 2 -i 13 -a 2 -x {0.0 2.0 13 ------- null}
h -t 0.618857142857143 -s 0 -d 1 -p cbr -e 512 -c 2 -i 13 -a 2 -x {0.0 2.0 -1 ------- null}
r -t 0.619620571428571 -s 0 -d 1 -p cbr -e 512 -c 2 -i 10 -a 2 -x {0.0 2.0 10 ------- null}
+ -t 0.619620571428571 -s 1 -d 2 -p cbr -e 512 -c 2 -i 10 -a 2 -x {0.0 2.0 10 ------- null}
- -t 0.619620571428571 -s 1 -d 2 -p cbr -e 512 -c 2 -i 10 -a 2 -x {0.0 2.0 10 ------- null}
h -t 0.619620571428571 -s 1 -d 2 -p cbr -e 512 -c 2 -i 10 -a 2 -x {0.0 2.0 -1 ------- null}
r -t 0.620384 -s 1 -d 2 -p cbr -e 512 -c 2 -i 7 -a 2 -x {0.0 2.0 7 ------- null}
+ -t 0.628 -s 0 -d 1 -p cbr -e 512 -c 2 -i 14 -a 2 -x {0.0 2.0 14 ------- null}
- -t 0.628 -s 0 -d 1 -p cbr -e 512 -c 2 -i 14 -a 2 -x {0.0 2.0 14 ------- null}
h -t 0.628 -s 0 -d 1 -p cbr -e 512 -c 2 -i 14 -a 2 -x {0.0 2.0 -1 ------- null}
r -t 0.628763428571428 -s 0 -d 1 -p cbr -e 512 -c 2 -i 11 -a 2 -x {0.0 2.0 11 ------- null}
+ -t 0.628763428571428 -s 1 -d 2 -p cbr -e 512 -c 2 -i 11 -a 2 -x {0.0 2.0 11 ------- null}
- -t 0.628763428571428 -s 1 -d 2 -p cbr -e 512 -c 2 -i 11 -a 2 -x {0.0 2.0 11 ------- null}
h -t 0.628763428571428 -s 1 -d 2 -p cbr -e 512 -c 2 -i 11 -a 2 -x {0.0 2.0 -1 ------- null}
r -t 0.629526857142857 -s 1 -d 2 -p cbr -e 512 -c 2 -i 8 -a 2 -x {0.0 2.0 8 ------- null}
+ -t 0.637142857142857 -s 0 -d 1 -p cbr -e 512 -c 2 -i 15 -a 2 -x {0.0 2.0 15 ------- null}
- -t 0.637142857142857 -s 0 -d 1 -p cbr -e 512 -c 2 -i 15 -a 2 -x {0.0 2.0 15 ------- null}
h -t 0.637142857142857 -s 0 -d 1 -p cbr -e 512 -c 2 -i 15 -a 2 -x {0.0 2.0 -1 ------- null}
r -t 0.637906285714285 -s 0 -d 1 -p cbr -e 512 -c 2 -i 12 -a 2 -x {0.0 2.0 12 ------- null}
+ -t 0.637906285714285 -s 1 -d 2 -p cbr -e 512 -c 2 -i 12 -a 2 -x {0.0 2.0 12 ------- null}
- -t 0.637906285714285 -s 1 -d 2 -p cbr -e 512 -c 2 -i 12 -a 2 -x {0.0 2.0 12 ------- null}
h -t 0.637906285714285 -s 1 -d 2 -p cbr -e 512 -c 2 -i 12 -a 2 -x {0.0 2.0 -1 ------- null}
r -t 0.638669714285714 -s 1 -d 2 -p cbr -e 512 -c 2 -i 9 -a 2 -x {0.0 2.0 9 ------- null}
+ -t 0.646285714285714 -s 0 -d 1 -p cbr -e 512 -c 2 -i 16 -a 2 -x {0.0 2.0 16 ------- null}
- -t 0.646285714285714 -s 0 -d 1 -p cbr -e 512 -c 2 -i 16 -a 2 -x {0.0 2.0 16 ------- null}
h -t 0.646285714285714 -s 0 -d 1 -p cbr -e 512 -c 2 -i 16 -a 2 -x {0.0 2.0 -1 ------- null}
r -t 0.647049142857143 -s 0 -d 1 -p cbr -e 512 -c 2 -i 13 -a 2 -x {0.0 2.0 13 ------- null}
+ -t 0.647049142857143 -s 1 -d 2 -p cbr -e 512 -c 2 -i 13 -a 2 -x {0.0 2.0 13 ------- null}
- -t 0.647049142857143 -s 1 -d 2 -p cbr -e 512 -c 2 -i 13 -a 2 -x {0.0 2.0 13 ------- null}
h -t 0.647049142857143 -s 1 -d 2 -p cbr -e 512 -c 2 -i 13 -a 2 -x {0.0 2.0 -1 ------- null}
r -t 0.647812571428571 -s 1 -d 2 -p cbr -e 512 -c 2 -i 10 -a 2 -x {0.0 2.0 10 ------- null}
+ -t 0.655428571428571 -s 0 -d 1 -p cbr -e 512 -c 2 -i 17 -a 2 -x {0.0 2.0 17 ------- null}
- -t 0.655428571428571 -s 0 -d 1 -p cbr -e 512 -c 2 -i 17 -a 2 -x {0.0 2.0 17 ------- null}
h -t 0.655428571428571 -s 0 -d 1 -p cbr -e 512 -c 2 -i 17 -a 2 -x {0.0 2.0 -1 ------- null}
r -t 0.656192 -s 0 -d 1 -p cbr -e 512 -c 2 -i 14 -a 2 -x {0.0 2.0 14 ------- null}
+ -t 0.656192 -s 1 -d 2 -p cbr -e 512 -c 2 -i 14 -a 2 -x {0.0 2.0 14 ------- null}
- -t 0.656192 -s 1 -d 2 -p cbr -e 512 -c 2 -i 14 -a 2 -x {0.0 2.0 14 ------- null}
h -t 0.656192 -s 1 -d 2 -p cbr -e 512 -c 2 -i 14 -a 2 -x {0.0 2.0 -1 ------- null}
r -t 0.656955428571428 -s 1 -d 2 -p cbr -e 512 -c 2 -i 11 -a 2 -x {0.0 2.0 11 ------- null}
+ -t 0.664571428571428 -s 0 -d 1 -p cbr -e 512 -c 2 -i 18 -a 2 -x {0.0 2.0 18 ------- null}
- -t 0.664571428571428 -s 0 -d 1 -p cbr -e 512 -c 2 -i 18 -a 2 -x {0.0 2.0 18 ------- null}
h -t 0.664571428571428 -s 0 -d 1 -p cbr -e 512 -c 2 -i 18 -a 2 -x {0.0 2.0 -1 ------- null}
r -t 0.665334857142857 -s 0 -d 1 -p cbr -e 512 -c 2 -i 15 -a 2 -x {0.0 2.0 15 ------- null}
+ -t 0.665334857142857 -s 1 -d 2 -p cbr -e 512 -c 2 -i 15 -a 2 -x {0.0 2.0 15 ------- null}
- -t 0.665334857142857 -s 1 -d 2 -p cbr -e 512 -c 2 -i 15 -a 2 -x {0.0 2.0 15 ------- null}
h -t 0.665334857142857 -s 1 -d 2 -p cbr -e 512 -c 2 -i 15 -a 2 -x {0.0 2.0 -1 ------- null}
r -t 0.666098285714285 -s 1 -d 2 -p cbr -e 512 -c 2 -i 12 -a 2 -x {0.0 2.0 12 ------- null}
+ -t 0.673714285714285 -s 0 -d 1 -p cbr -e 512 -c 2 -i 19 -a 2 -x {0.0 2.0 19 ------- null}
- -t 0.673714285714285 -s 0 -d 1 -p cbr -e 512 -c 2 -i 19 -a 2 -x {0.0 2.0 19 ------- null}
h -t 0.673714285714285 -s 0 -d 1 -p cbr -e 512 -c 2 -i 19 -a 2 -x {0.0 2.0 -1 ------- null}
r -t 0.674477714285714 -s 0 -d 1 -p cbr -e 512 -c 2 -i 16 -a 2 -x {0.0 2.0 16 ------- null}
+ -t 0.674477714285714 -s 1 -d 2 -p cbr -e 512 -c 2 -i 16 -a 2 -x {0.0 2.0 16 ------- null}
- -t 0.674477714285714 -s 1 -d 2 -p cbr -e 512 -c 2 -i 16 -a 2 -x {0.0 2.0 16 ------- null}
h -t 0.674477714285714 -s 1 -d 2 -p cbr -e 512 -c 2 -i 16 -a 2 -x {0.0 2.0 -1 ------- null}
r -t 0.675241142857143 -s 1 -d 2 -p cbr -e 512 -c 2 -i 13 -a 2 -x {0.0 2.0 13 ------- null}
+ -t 0.682857142857142 -s 0 -d 1 -p cbr -e 512 -c 2 -i 20 -a 2 -x {0.0 2.0 20 ------- null}
- -t 0.682857142857142 -s 0 -d 1 -p cbr -e 512 -c 2 -i 20 -a 2 -x {0.0 2.0 20 ------- null}
h -t 0.682857142857142 -s 0 -d 1 -p cbr -e 512 -c 2 -i 20 -a 2 -x {0.0 2.0 -1 ------- null}
r -t 0.683620571428571 -s 0 -d 1 -p cbr -e 512 -c 2 -i 17 -a 2 -x {0.0 2.0 17 ------- null}
+ -t 0.683620571428571 -s 1 -d 2 -p cbr -e 512 -c 2 -i 17 -a 2 -x {0.0 2.0 17 ------- null}
- -t 0.683620571428571 -s 1 -d 2 -p cbr -e 512 -c 2 -i 17 -a 2 -x {0.0 2.0 17 ------- null}
h -t 0.683620571428571 -s 1 -d 2 -p cbr -e 512 -c 2 -i 17 -a 2 -x {0.0 2.0 -1 ------- null}
r -t 0.684384 -s 1 -d 2 -p cbr -e 512 -c 2 -i 14 -a 2 -x {0.0 2.0 14 ------- null}
+ -t 0.692 -s 0 -d 1 -p cbr -e 512 -c 2 -i 21 -a 2 -x {0.0 2.0 21 ------- null}
- -t 0.692 -s 0 -d 1 -p cbr -e 512 -c 2 -i 21 -a 2 -x {0.0 2.0 21 ------- null}
h -t 0.692 -s 0 -d 1 -p cbr -e 512 -c 2 -i 21 -a 2 -x {0.0 2.0 -1 ------- null}
r -t 0.692763428571428 -s 0 -d 1 -p cbr -e 512 -c 2 -i 18 -a 2 -x {0.0 2.0 18 ------- null}
+ -t 0.692763428571428 -s 1 -d 2 -p cbr -e 512 -c 2 -i 18 -a 2 -x {0.0 2.0 18 ------- null}
- -t 0.692763428571428 -s 1 -d 2 -p cbr -e 512 -c 2 -i 18 -a 2 -x {0.0 2.0 18 ------- null}
h -t 0.692763428571428 -s 1 -d 2 -p cbr -e 512 -c 2 -i 18 -a 2 -x {0.0 2.0 -1 ------- null}
r -t 0.693526857142857 -s 1 -d 2 -p cbr -e 512 -c 2 -i 15 -a 2 -x {0.0 2.0 15 ------- null}
+ -t 0.701142857142857 -s 0 -d 1 -p cbr -e 512 -c 2 -i 22 -a 2 -x {0.0 2.0 22 ------- null}
- -t 0.701142857142857 -s 0 -d 1 -p cbr -e 512 -c 2 -i 22 -a 2 -x {0.0 2.0 22 ------- null}
h -t 0.701142857142857 -s 0 -d 1 -p cbr -e 512 -c 2 -i 22 -a 2 -x {0.0 2.0 -1 ------- null}
r -t 0.701906285714285 -s 0 -d 1 -p cbr -e 512 -c 2 -i 19 -a 2 -x {0.0 2.0 19 ------- null}
+ -t 0.701906285714285 -s 1 -d 2 -p cbr -e 512 -c 2 -i 19 -a 2 -x {0.0 2.0 19 ------- null}
- -t 0.701906285714285 -s 1 -d 2 -p cbr -e 512 -c 2 -i 19 -a 2 -x {0.0 2.0 19 ------- null}
h -t 0.701906285714285 -s 1 -d 2 -p cbr -e 512 -c 2 -i 19 -a 2 -x {0.0 2.0 -1 ------- null}
r -t 0.702669714285714 -s 1 -d 2 -p cbr -e 512 -c 2 -i 16 -a 2 -x {0.0 2.0 16 ------- null}
+ -t 0.710285714285714 -s 0 -d 1 -p cbr -e 512 -c 2 -i 23 -a 2 -x {0.0 2.0 23 ------- null}
- -t 0.710285714285714 -s 0 -d 1 -p cbr -e 512 -c 2 -i 23 -a 2 -x {0.0 2.0 23 ------- null}
h -t 0.710285714285714 -s 0 -d 1 -p cbr -e 512 -c 2 -i 23 -a 2 -x {0.0 2.0 -1 ------- null}
r -t 0.711049142857142 -s 0 -d 1 -p cbr -e 512 -c 2 -i 20 -a 2 -x {0.0 2.0 20 ------- null}
+ -t 0.711049142857142 -s 1 -d 2 -p cbr -e 512 -c 2 -i 20 -a 2 -x {0.0 2.0 20 ------- null}
- -t 0.711049142857142 -s 1 -d 2 -p cbr -e 512 -c 2 -i 20 -a 2 -x {0.0 2.0 20 ------- null}
h -t 0.711049142857142 -s 1 -d 2 -p cbr -e 512 -c 2 -i 20 -a 2 -x {0.0 2.0 -1 ------- null}
r -t 0.711812571428571 -s 1 -d 2 -p cbr -e 512 -c 2 -i 17 -a 2 -x {0.0 2.0 17 ------- null}
+ -t 0.719428571428571 -s 0 -d 1 -p cbr -e 512 -c 2 -i 24 -a 2 -x {0.0 2.0 24 ------- null}
- -t 0.719428571428571 -s 0 -d 1 -p cbr -e 512 -c 2 -i 24 -a 2 -x {0.0 2.0 24 ------- null}
h -t 0.719428571428571 -s 0 -d 1 -p cbr -e 512 -c 2 -i 24 -a 2 -x {0.0 2.0 -1 ------- null}
r -t 0.720191999999999 -s 0 -d 1 -p cbr -e 512 -c 2 -i 21 -a 2 -x {0.0 2.0 21 ------- null}
+ -t 0.720191999999999 -s 1 -d 2 -p cbr -e 512 -c 2 -i 21 -a 2 -x {0.0 2.0 21 ------- null}
- -t 0.720191999999999 -s 1 -d 2 -p cbr -e 512 -c 2 -i 21 -a 2 -x {0.0 2.0 21 ------- null}
h -t 0.720191999999999 -s 1 -d 2 -p cbr -e 512 -c 2 -i 21 -a 2 -x {0.0 2.0 -1 ------- null}
r -t 0.720955428571428 -s 1 -d 2 -p cbr -e 512 -c 2 -i 18 -a 2 -x {0.0 2.0 18 ------- null}
+ -t 0.728571428571428 -s 0 -d 1 -p cbr -e 512 -c 2 -i 25 -a 2 -x {0.0 2.0 25 ------- null}
- -t 0.728571428571428 -s 0 -d 1 -p cbr -e 512 -c 2 -i 25 -a 2 -x {0.0 2.0 25 ------- null}
h -t 0.728571428571428 -s 0 -d 1 -p cbr -e 512 -c 2 -i 25 -a 2 -x {0.0 2.0 -1 ------- null}
r -t 0.729334857142857 -s 0 -d 1 -p cbr -e 512 -c 2 -i 22 -a 2 -x {0.0 2.0 22 ------- null}
+ -t 0.729334857142857 -s 1 -d 2 -p cbr -e 512 -c 2 -i 22 -a 2 -x {0.0 2.0 22 ------- null}
- -t 0.729334857142857 -s 1 -d 2 -p cbr -e 512 -c 2 -i 22 -a 2 -x {0.0 2.0 22 ------- null}
h -t 0.729334857142857 -s 1 -d 2 -p cbr -e 512 -c 2 -i 22 -a 2 -x {0.0 2.0 -1 ------- null}
r -t 0.730098285714285 -s 1 -d 2 -p cbr -e 512 -c 2 -i 19 -a 2 -x {0.0 2.0 19 ------- null}
+ -t 0.737714285714285 -s 0 -d 1 -p cbr -e 512 -c 2 -i 26 -a 2 -x {0.0 2.0 26 ------- null}
- -t 0.737714285714285 -s 0 -d 1 -p cbr -e 512 -c 2 -i 26 -a 2 -x {0.0 2.0 26 ------- null}
h -t 0.737714285714285 -s 0 -d 1 -p cbr -e 512 -c 2 -i 26 -a 2 -x {0.0 2.0 -1 ------- null}
r -t 0.738477714285714 -s 0 -d 1 -p cbr -e 512 -c 2 -i 23 -a 2 -x {0.0 2.0 23 ------- null}
+ -t 0.738477714285714 -s 1 -d 2 -p cbr -e 512 -c 2 -i 23 -a 2 -x {0.0 2.0 23 ------- null}
- -t 0.738477714285714 -s 1 -d 2 -p cbr -e 512 -c 2 -i 23 -a 2 -x {0.0 2.0 23 ------- null}
h -t 0.738477714285714 -s 1 -d 2 -p cbr -e 512 -c 2 -i 23 -a 2 -x {0.0 2.0 -1 ------- null}
r -t 0.739241142857142 -s 1 -d 2 -p cbr -e 512 -c 2 -i 20 -a 2 -x {0.0 2.0 20 ------- null}
+ -t 0.746857142857142 -s 0 -d 1 -p cbr -e 512 -c 2 -i 27 -a 2 -x {0.0 2.0 27 ------- null}
- -t 0.746857142857142 -s 0 -d 1 -p cbr -e 512 -c 2 -i 27 -a 2 -x {0.0 2.0 27 ------- null}
h -t 0.746857142857142 -s 0 -d 1 -p cbr -e 512 -c 2 -i 27 -a 2 -x {0.0 2.0 -1 ------- null}
r -t 0.747620571428571 -s 0 -d 1 -p cbr -e 512 -c 2 -i 24 -a 2 -x {0.0 2.0 24 ------- null}
+ -t 0.747620571428571 -s 1 -d 2 -p cbr -e 512 -c 2 -i 24 -a 2 -x {0.0 2.0 24 ------- null}
- -t 0.747620571428571 -s 1 -d 2 -p cbr -e 512 -c 2 -i 24 -a 2 -x {0.0 2.0 24 ------- null}
h -t 0.747620571428571 -s 1 -d 2 -p cbr -e 512 -c 2 -i 24 -a 2 -x {0.0 2.0 -1 ------- null}
r -t 0.748383999999999 -s 1 -d 2 -p cbr -e 512 -c 2 -i 21 -a 2 -x {0.0 2.0 21 ------- null}
+ -t 0.755999999999999 -s 0 -d 1 -p cbr -e 512 -c 2 -i 28 -a 2 -x {0.0 2.0 28 ------- null}
- -t 0.755999999999999 -s 0 -d 1 -p cbr -e 512 -c 2 -i 28 -a 2 -x {0.0 2.0 28 ------- null}
h -t 0.755999999999999 -s 0 -d 1 -p cbr -e 512 -c 2 -i 28 -a 2 -x {0.0 2.0 -1 ------- null}
r -t 0.756763428571428 -s 0 -d 1 -p cbr -e 512 -c 2 -i 25 -a 2 -x {0.0 2.0 25 ------- null}
+ -t 0.756763428571428 -s 1 -d 2 -p cbr -e 512 -c 2 -i 25 -a 2 -x {0.0 2.0 25 ------- null}
- -t 0.756763428571428 -s 1 -d 2 -p cbr -e 512 -c 2 -i 25 -a 2 -x {0.0 2.0 25 ------- null}
h -t 0.756763428571428 -s 1 -d 2 -p cbr -e 512 -c 2 -i 25 -a 2 -x {0.0 2.0 -1 ------- null}
r -t 0.757526857142857 -s 1 -d 2 -p cbr -e 512 -c 2 -i 22 -a 2 -x {0.0 2.0 22 ------- null}
+ -t 0.765142857142856 -s 0 -d 1 -p cbr -e 512 -c 2 -i 29 -a 2 -x {0.0 2.0 29 ------- null}
- -t 0.765142857142856 -s 0 -d 1 -p cbr -e 512 -c 2 -i 29 -a 2 -x {0.0 2.0 29 ------- null}
h -t 0.765142857142856 -s 0 -d 1 -p cbr -e 512 -c 2 -i 29 -a 2 -x {0.0 2.0 -1 ------- null}
r -t 0.765906285714285 -s 0 -d 1 -p cbr -e 512 -c 2 -i 26 -a 2 -x {0.0 2.0 26 ------- null}
+ -t 0.765906285714285 -s 1 -d 2 -p cbr -e 512 -c 2 -i 26 -a 2 -x {0.0 2.0 26 ------- null}
- -t 0.765906285714285 -s 1 -d 2 -p cbr -e 512 -c 2 -i 26 -a 2 -x {0.0 2.0 26 ------- null}
h -t 0.765906285714285 -s 1 -d 2 -p cbr -e 512 -c 2 -i 26 -a 2 -x {0.0 2.0 -1 ------- null}
r -t 0.766669714285714 -s 1 -d 2 -p cbr -e 512 -c 2 -i 23 -a 2 -x {0.0 2.0 23 ------- null}
+ -t 0.774285714285714 -s 0 -d 1 -p cbr -e 512 -c 2 -i 30 -a 2 -x {0.0 2.0 30 ------- null}
- -t 0.774285714285714 -s 0 -d 1 -p cbr -e 512 -c 2 -i 30 -a 2 -x {0.0 2.0 30 ------- null}
h -t 0.774285714285714 -s 0 -d 1 -p cbr -e 512 -c 2 -i 30 -a 2 -x {0.0 2.0 -1 ------- null}
r -t 0.775049142857142 -s 0 -d 1 -p cbr -e 512 -c 2 -i 27 -a 2 -x {0.0 2.0 27 ------- null}
+ -t 0.775049142857142 -s 1 -d 2 -p cbr -e 512 -c 2 -i 27 -a 2 -x {0.0 2.0 27 ------- null}
- -t 0.775049142857142 -s 1 -d 2 -p cbr -e 512 -c 2 -i 27 -a 2 -x {0.0 2.0 27 ------- null}
h -t 0.775049142857142 -s 1 -d 2 -p cbr -e 512 -c 2 -i 27 -a 2 -x {0.0 2.0 -1 ------- null}
r -t 0.775812571428571 -s 1 -d 2 -p cbr -e 512 -c 2 -i 24 -a 2 -x {0.0 2.0 24 ------- null}
+ -t 0.783428571428571 -s 0 -d 1 -p cbr -e 512 -c 2 -i 31 -a 2 -x {0.0 2.0 31 ------- null}
- -t 0.783428571428571 -s 0 -d 1 -p cbr -e 512 -c 2 -i 31 -a 2 -x {0.0 2.0 31 ------- null}
h -t 0.783428571428571 -s 0 -d 1 -p cbr -e 512 -c 2 -i 31 -a 2 -x {0.0 2.0 -1 ------- null}
r -t 0.784191999999999 -s 0 -d 1 -p cbr -e 512 -c 2 -i 28 -a 2 -x {0.0 2.0 28 ------- null}
+ -t 0.784191999999999 -s 1 -d 2 -p cbr -e 512 -c 2 -i 28 -a 2 -x {0.0 2.0 28 ------- null}
- -t 0.784191999999999 -s 1 -d 2 -p cbr -e 512 -c 2 -i 28 -a 2 -x {0.0 2.0 28 ------- null}
h -t 0.784191999999999 -s 1 -d 2 -p cbr -e 512 -c 2 -i 28 -a 2 -x {0.0 2.0 -1 ------- null}
r -t 0.784955428571428 -s 1 -d 2 -p cbr -e 512 -c 2 -i 25 -a 2 -x {0.0 2.0 25 ------- null}
+ -t 0.792571428571428 -s 0 -d 1 -p cbr -e 512 -c 2 -i 32 -a 2 -x {0.0 2.0 32 ------- null}
- -t 0.792571428571428 -s 0 -d 1 -p cbr -e 512 -c 2 -i 32 -a 2 -x {0.0 2.0 32 ------- null}
h -t 0.792571428571428 -s 0 -d 1 -p cbr -e 512 -c 2 -i 32 -a 2 -x {0.0 2.0 -1 ------- null}
r -t 0.793334857142856 -s 0 -d 1 -p cbr -e 512 -c 2 -i 29 -a 2 -x {0.0 2.0 29 ------- null}
+ -t 0.793334857142856 -s 1 -d 2 -p cbr -e 512 -c 2 -i 29 -a 2 -x {0.0 2.0 29 ------- null}
- -t 0.793334857142856 -s 1 -d 2 -p cbr -e 512 -c 2 -i 29 -a 2 -x {0.0 2.0 29 ------- null}
h -t 0.793334857142856 -s 1 -d 2 -p cbr -e 512 -c 2 -i 29 -a 2 -x {0.0 2.0 -1 ------- null}
r -t 0.794098285714285 -s 1 -d 2 -p cbr -e 512 -c 2 -i 26 -a 2 -x {0.0 2.0 26 ------- null}
+ -t 0.801714285714285 -s 0 -d 1 -p cbr -e 512 -c 2 -i 33 -a 2 -x {0.0 2.0 33 ------- null}
- -t 0.801714285714285 -s 0 -d 1 -p cbr -e 512 -c 2 -i 33 -a 2 -x {0.0 2.0 33 ------- null}
h -t 0.801714285714285 -s 0 -d 1 -p cbr -e 512 -c 2 -i 33 -a 2 -x {0.0 2.0 -1 ------- null}
r -t 0.802477714285714 -s 0 -d 1 -p cbr -e 512 -c 2 -i 30 -a 2 -x {0.0 2.0 30 ------- null}
+ -t 0.802477714285714 -s 1 -d 2 -p cbr -e 512 -c 2 -i 30 -a 2 -x {0.0 2.0 30 ------- null}
- -t 0.802477714285714 -s 1 -d 2 -p cbr -e 512 -c 2 -i 30 -a 2 -x {0.0 2.0 30 ------- null}
h -t 0.802477714285714 -s 1 -d 2 -p cbr -e 512 -c 2 -i 30 -a 2 -x {0.0 2.0 -1 ------- null}
r -t 0.803241142857142 -s 1 -d 2 -p cbr -e 512 -c 2 -i 27 -a 2 -x {0.0 2.0 27 ------- null}
+ -t 0.810857142857142 -s 0 -d 1 -p cbr -e 512 -c 2 -i 34 -a 2 -x {0.0 2.0 34 ------- null}
- -t 0.810857142857142 -s 0 -d 1 -p cbr -e 512 -c 2 -i 34 -a 2 -x {0.0 2.0 34 ------- null}
h -t 0.810857142857142 -s 0 -d 1 -p cbr -e 512 -c 2 -i 34 -a 2 -x {0.0 2.0 -1 ------- null}
r -t 0.811620571428571 -s 0 -d 1 -p cbr -e 512 -c 2 -i 31 -a 2 -x {0.0 2.0 31 ------- null}
+ -t 0.811620571428571 -s 1 -d 2 -p cbr -e 512 -c 2 -i 31 -a 2 -x {0.0 2.0 31 ------- null}
- -t 0.811620571428571 -s 1 -d 2 -p cbr -e 512 -c 2 -i 31 -a 2 -x {0.0 2.0 31 ------- null}
h -t 0.811620571428571 -s 1 -d 2 -p cbr -e 512 -c 2 -i 31 -a 2 -x {0.0 2.0 -1 ------- null}
r -t 0.812383999999999 -s 1 -d 2 -p cbr -e 512 -c 2 -i 28 -a 2 -x {0.0 2.0 28 ------- null}
+ -t 0.819999999999999 -s 0 -d 1 -p cbr -e 512 -c 2 -i 35 -a 2 -x {0.0 2.0 35 ------- null}
- -t 0.819999999999999 -s 0 -d 1 -p cbr -e 512 -c 2 -i 35 -a 2 -x {0.0 2.0 35 ------- null}
h -t 0.819999999999999 -s 0 -d 1 -p cbr -e 512 -c 2 -i 35 -a 2 -x {0.0 2.0 -1 ------- null}
r -t 0.820763428571428 -s 0 -d 1 -p cbr -e 512 -c 2 -i 32 -a 2 -x {0.0 2.0 32 ------- null}
+ -t 0.820763428571428 -s 1 -d 2 -p cbr -e 512 -c 2 -i 32 -a 2 -x {0.0 2.0 32 ------- null}
- -t 0.820763428571428 -s 1 -d 2 -p cbr -e 512 -c 2 -i 32 -a 2 -x {0.0 2.0 32 ------- null}
h -t 0.820763428571428 -s 1 -d 2 -p cbr -e 512 -c 2 -i 32 -a 2 -x {0.0 2.0 -1 ------- null}
r -t 0.821526857142856 -s 1 -d 2 -p cbr -e 512 -c 2 -i 29 -a 2 -x {0.0 2.0 29 ------- null}
+ -t 0.829142857142856 -s 0 -d 1 -p cbr -e 512 -c 2 -i 36 -a 2 -x {0.0 2.0 36 ------- null}
- -t 0.829142857142856 -s 0 -d 1 -p cbr -e 512 -c 2 -i 36 -a 2 -x {0.0 2.0 36 ------- null}
h -t 0.829142857142856 -s 0 -d 1 -p cbr -e 512 -c 2 -i 36 -a 2 -x {0.0 2.0 -1 ------- null}
r -t 0.829906285714285 -s 0 -d 1 -p cbr -e 512 -c 2 -i 33 -a 2 -x {0.0 2.0 33 ------- null}
+ -t 0.829906285714285 -s 1 -d 2 -p cbr -e 512 -c 2 -i 33 -a 2 -x {0.0 2.0 33 ------- null}
- -t 0.829906285714285 -s 1 -d 2 -p cbr -e 512 -c 2 -i 33 -a 2 -x {0.0 2.0 33 ------- null}
h -t 0.829906285714285 -s 1 -d 2 -p cbr -e 512 -c 2 -i 33 -a 2 -x {0.0 2.0 -1 ------- null}
r -t 0.830669714285714 -s 1 -d 2 -p cbr -e 512 -c 2 -i 30 -a 2 -x {0.0 2.0 30 ------- null}
+ -t 0.838285714285713 -s 0 -d 1 -p cbr -e 512 -c 2 -i 37 -a 2 -x {0.0 2.0 37 ------- null}
- -t 0.838285714285713 -s 0 -d 1 -p cbr -e 512 -c 2 -i 37 -a 2 -x {0.0 2.0 37 ------- null}
h -t 0.838285714285713 -s 0 -d 1 -p cbr -e 512 -c 2 -i 37 -a 2 -x {0.0 2.0 -1 ------- null}
r -t 0.839049142857142 -s 0 -d 1 -p cbr -e 512 -c 2 -i 34 -a 2 -x {0.0 2.0 34 ------- null}
+ -t 0.839049142857142 -s 1 -d 2 -p cbr -e 512 -c 2 -i 34 -a 2 -x {0.0 2.0 34 ------- null}
- -t 0.839049142857142 -s 1 -d 2 -p cbr -e 512 -c 2 -i 34 -a 2 -x {0.0 2.0 34 ------- null}
h -t 0.839049142857142 -s 1 -d 2 -p cbr -e 512 -c 2 -i 34 -a 2 -x {0.0 2.0 -1 ------- null}
r -t 0.839812571428571 -s 1 -d 2 -p cbr -e 512 -c 2 -i 31 -a 2 -x {0.0 2.0 31 ------- null}
+ -t 0.847428571428571 -s 0 -d 1 -p cbr -e 512 -c 2 -i 38 -a 2 -x {0.0 2.0 38 ------- null}
- -t 0.847428571428571 -s 0 -d 1 -p cbr -e 512 -c 2 -i 38 -a 2 -x {0.0 2.0 38 ------- null}
h -t 0.847428571428571 -s 0 -d 1 -p cbr -e 512 -c 2 -i 38 -a 2 -x {0.0 2.0 -1 ------- null}
r -t 0.848191999999999 -s 0 -d 1 -p cbr -e 512 -c 2 -i 35 -a 2 -x {0.0 2.0 35 ------- null}
+ -t 0.848191999999999 -s 1 -d 2 -p cbr -e 512 -c 2 -i 35 -a 2 -x {0.0 2.0 35 ------- null}
- -t 0.848191999999999 -s 1 -d 2 -p cbr -e 512 -c 2 -i 35 -a 2 -x {0.0 2.0 35 ------- null}
h -t 0.848191999999999 -s 1 -d 2 -p cbr -e 512 -c 2 -i 35 -a 2 -x {0.0 2.0 -1 ------- null}
r -t 0.848955428571428 -s 1 -d 2 -p cbr -e 512 -c 2 -i 32 -a 2 -x {0.0 2.0 32 ------- null}
+ -t 0.856571428571428 -s 0 -d 1 -p cbr -e 512 -c 2 -i 39 -a 2 -x {0.0 2.0 39 ------- null}
- -t 0.856571428571428 -s 0 -d 1 -p cbr -e 512 -c 2 -i 39 -a 2 -x {0.0 2.0 39 ------- null}
h -t 0.856571428571428 -s 0 -d 1 -p cbr -e 512 -c 2 -i 39 -a 2 -x {0.0 2.0 -1 ------- null}
r -t 0.857334857142856 -s 0 -d 1 -p cbr -e 512 -c 2 -i 36 -a 2 -x {0.0 2.0 36 ------- null}
+ -t 0.857334857142856 -s 1 -d 2 -p cbr -e 512 -c 2 -i 36 -a 2 -x {0.0 2.0 36 ------- null}
- -t 0.857334857142856 -s 1 -d 2 -p cbr -e 512 -c 2 -i 36 -a 2 -x {0.0 2.0 36 ------- null}
h -t 0.857334857142856 -s 1 -d 2 -p cbr -e 512 -c 2 -i 36 -a 2 -x {0.0 2.0 -1 ------- null}
r -t 0.858098285714285 -s 1 -d 2 -p cbr -e 512 -c 2 -i 33 -a 2 -x {0.0 2.0 33 ------- null}
+ -t 0.865714285714285 -s 0 -d 1 -p cbr -e 512 -c 2 -i 40 -a 2 -x {0.0 2.0 40 ------- null}
- -t 0.865714285714285 -s 0 -d 1 -p cbr -e 512 -c 2 -i 40 -a 2 -x {0.0 2.0 40 ------- null}
h -t 0.865714285714285 -s 0 -d 1 -p cbr -e 512 -c 2 -i 40 -a 2 -x {0.0 2.0 -1 ------- null}
r -t 0.866477714285713 -s 0 -d 1 -p cbr -e 512 -c 2 -i 37 -a 2 -x {0.0 2.0 37 ------- null}
+ -t 0.866477714285713 -s 1 -d 2 -p cbr -e 512 -c 2 -i 37 -a 2 -x {0.0 2.0 37 ------- null}
- -t 0.866477714285713 -s 1 -d 2 -p cbr -e 512 -c 2 -i 37 -a 2 -x {0.0 2.0 37 ------- null}
h -t 0.866477714285713 -s 1 -d 2 -p cbr -e 512 -c 2 -i 37 -a 2 -x {0.0 2.0 -1 ------- null}
r -t 0.867241142857142 -s 1 -d 2 -p cbr -e 512 -c 2 -i 34 -a 2 -x {0.0 2.0 34 ------- null}
+ -t 0.874857142857142 -s 0 -d 1 -p cbr -e 512 -c 2 -i 41 -a 2 -x {0.0 2.0 41 ------- null}
- -t 0.874857142857142 -s 0 -d 1 -p cbr -e 512 -c 2 -i 41 -a 2 -x {0.0 2.0 41 ------- null}
h -t 0.874857142857142 -s 0 -d 1 -p cbr -e 512 -c 2 -i 41 -a 2 -x {0.0 2.0 -1 ------- null}
r -t 0.875620571428571 -s 0 -d 1 -p cbr -e 512 -c 2 -i 38 -a 2 -x {0.0 2.0 38 ------- null}
+ -t 0.875620571428571 -s 1 -d 2 -p cbr -e 512 -c 2 -i 38 -a 2 -x {0.0 2.0 38 ------- null}
- -t 0.875620571428571 -s 1 -d 2 -p cbr -e 512 -c 2 -i 38 -a 2 -x {0.0 2.0 38 ------- null}
h -t 0.875620571428571 -s 1 -d 2 -p cbr -e 512 -c 2 -i 38 -a 2 -x {0.0 2.0 -1 ------- null}
r -t 0.876383999999999 -s 1 -d 2 -p cbr -e 512 -c 2 -i 35 -a 2 -x {0.0 2.0 35 ------- null}
+ -t 0.883999999999999 -s 0 -d 1 -p cbr -e 512 -c 2 -i 42 -a 2 -x {0.0 2.0 42 ------- null}
- -t 0.883999999999999 -s 0 -d 1 -p cbr -e 512 -c 2 -i 42 -a 2 -x {0.0 2.0 42 ------- null}
h -t 0.883999999999999 -s 0 -d 1 -p cbr -e 512 -c 2 -i 42 -a 2 -x {0.0 2.0 -1 ------- null}
r -t 0.884763428571428 -s 0 -d 1 -p cbr -e 512 -c 2 -i 39 -a 2 -x {0.0 2.0 39 ------- null}
+ -t 0.884763428571428 -s 1 -d 2 -p cbr -e 512 -c 2 -i 39 -a 2 -x {0.0 2.0 39 ------- null}
- -t 0.884763428571428 -s 1 -d 2 -p cbr -e 512 -c 2 -i 39 -a 2 -x {0.0 2.0 39 ------- null}
h -t 0.884763428571428 -s 1 -d 2 -p cbr -e 512 -c 2 -i 39 -a 2 -x {0.0 2.0 -1 ------- null}
r -t 0.885526857142856 -s 1 -d 2 -p cbr -e 512 -c 2 -i 36 -a 2 -x {0.0 2.0 36 ------- null}